# Moment        
# CofR          : (0.00000000e+00 0.00000000e+00 0.00000000e+00)
#
# Time          	(total_x total_y total_z)	(pressure_x pressure_y pressure_z)	(viscous_x viscous_y viscous_z)
1               	(-6.89087321e-06 4.35154019e-03 1.11561473e-02)	(-6.87301755e-06 4.34900240e-03 1.11521450e-02)	(-1.78556529e-08 2.53778227e-06 4.00225074e-06)
2               	(-9.45334670e-06 -9.02373011e-04 1.37951845e-03)	(-1.04209488e-05 -8.92260919e-04 1.40353256e-03)	(9.67602110e-07 -1.01120913e-05 -2.40141146e-05)
3               	(-4.93490872e-06 -1.29909591e-02 -6.59169575e-03)	(-6.93064438e-06 -1.29694769e-02 -6.67545444e-03)	(1.99573566e-06 -2.14822351e-05 8.37586881e-05)
4               	(-1.24398076e-07 -1.70481187e-02 -1.36774789e-02)	(-2.18263577e-06 -1.70248590e-02 -1.41202940e-02)	(2.05823769e-06 -2.32596678e-05 4.42815107e-04)
5               	(-2.29896132e-06 -4.86119079e-02 7.45410859e-02)	(-3.17589031e-06 -4.84006218e-02 7.36201293e-02)	(8.76928985e-07 -2.11286099e-04 9.20956600e-04)
6               	(-1.42418969e-05 -1.10630587e-02 3.10103390e-02)	(-1.09070266e-06 -1.10266395e-02 3.02731338e-02)	(-1.31511943e-05 -3.64192382e-05 7.37205243e-04)
7               	(-5.30022259e-06 1.51149678e-02 -3.78997322e-02)	(1.67479858e-06 1.49059269e-02 -3.78987887e-02)	(-6.97502118e-06 2.09040869e-04 -9.43490507e-07)
8               	(9.96308545e-06 4.29351043e-02 -1.04969504e-01)	(8.48551014e-07 4.25605834e-02 -1.04589791e-01)	(9.11453444e-06 3.74520936e-04 -3.79712382e-04)
9               	(6.51479344e-06 7.18913353e-02 -5.44144061e-02)	(-3.84651484e-07 7.17755723e-02 -5.39602331e-02)	(6.89944493e-06 1.15763015e-04 -4.54172935e-04)
10              	(8.32137424e-06 4.68928809e-02 2.56867979e-02)	(-8.11505924e-08 4.70781983e-02 2.58636354e-02)	(8.40252483e-06 -1.85317491e-04 -1.76837509e-04)
11              	(7.20198190e-06 -2.52490407e-03 8.45741423e-02)	(6.48847531e-07 -1.97348515e-03 8.44516517e-02)	(6.55313437e-06 -5.51418924e-04 1.22490596e-04)
12              	(4.70507797e-06 -2.35335691e-02 2.89060695e-02)	(1.51943973e-06 -2.27752551e-02 2.82573159e-02)	(3.18563824e-06 -7.58313991e-04 6.48753592e-04)
13              	(2.98982417e-06 -5.15582083e-03 -3.65572252e-02)	(-8.75625682e-07 -4.16047749e-03 -3.74710406e-02)	(3.86544985e-06 -9.95343343e-04 9.13815428e-04)
14              	(2.39629162e-06 2.18324458e-02 -7.75055450e-02)	(-1.87875445e-06 2.27813174e-02 -7.81453928e-02)	(4.27504607e-06 -9.48871620e-04 6.39847777e-04)
15              	(3.32555639e-06 3.13783003e-02 -6.58837996e-02)	(-1.32541761e-06 3.21043266e-02 -6.61571433e-02)	(4.65097400e-06 -7.26026299e-04 2.73343736e-04)
16              	(4.75992199e-06 2.32167904e-02 -3.34494300e-02)	(2.03745127e-07 2.36031034e-02 -3.36497750e-02)	(4.55617686e-06 -3.86312923e-04 2.00344995e-04)
17              	(5.85408894e-06 5.05745753e-03 -2.30796126e-02)	(1.18803656e-06 5.22036887e-03 -2.32236612e-02)	(4.66605238e-06 -1.62911340e-04 1.44048626e-04)
18              	(3.43897082e-06 -8.27131659e-03 -5.56241919e-02)	(8.07330886e-07 -8.14371548e-03 -5.55916900e-02)	(2.63163994e-06 -1.27601112e-04 -3.25019251e-05)
19              	(6.65927746e-07 -5.26517469e-03 -9.22400297e-02)	(-1.20953472e-07 -5.11385400e-03 -9.22603887e-02)	(7.86881218e-07 -1.51320697e-04 2.03590508e-05)
20              	(-6.72572905e-07 9.66819615e-03 -1.15342278e-01)	(-8.52606210e-07 9.89315993e-03 -1.15382071e-01)	(1.80033305e-07 -2.24963782e-04 3.97927467e-05)
21              	(-2.46994559e-07 2.21970670e-02 -1.13696845e-01)	(-9.51837119e-07 2.24595031e-02 -1.13648158e-01)	(7.04842560e-07 -2.62436115e-04 -4.86874397e-05)
22              	(7.42480071e-07 2.76876215e-02 -1.00985314e-01)	(-2.88453956e-07 2.78956530e-02 -1.00847686e-01)	(1.03093403e-06 -2.08031556e-04 -1.37627781e-04)
23              	(9.71056187e-08 2.48882855e-02 -9.12226734e-02)	(6.43791738e-07 2.50261735e-02 -9.09858335e-02)	(-5.46686119e-07 -1.37888040e-04 -2.36839923e-04)
24              	(-1.40323604e-06 1.93151342e-02 -9.16297439e-02)	(1.42383729e-06 1.94029811e-02 -9.13184161e-02)	(-2.82707333e-06 -8.78469486e-05 -3.11327738e-04)
25              	(-2.44346301e-06 1.73115592e-02 -1.01707171e-01)	(1.70092036e-06 1.73566227e-02 -1.01310412e-01)	(-4.14438337e-06 -4.50634693e-05 -3.96758896e-04)
26              	(-2.42956155e-06 2.16674877e-02 -1.15910600e-01)	(1.59249948e-06 2.16977412e-02 -1.15471406e-01)	(-4.02206103e-06 -3.02534936e-05 -4.39193938e-04)
27              	(-3.23315764e-06 2.86722100e-02 -1.24431153e-01)	(1.28996712e-06 2.87004895e-02 -1.23971054e-01)	(-4.52312476e-06 -2.82794921e-05 -4.60099056e-04)
28              	(-3.64416567e-06 3.26868979e-02 -1.22587697e-01)	(9.40878686e-07 3.27042482e-02 -1.22086169e-01)	(-4.58504435e-06 -1.73503353e-05 -5.01528282e-04)
29              	(-3.64756833e-06 3.14919168e-02 -1.13264588e-01)	(6.01365520e-07 3.14948497e-02 -1.12689368e-01)	(-4.24893385e-06 -2.93282225e-06 -5.75220099e-04)
30              	(-2.62998929e-06 2.68250569e-02 -1.02683337e-01)	(3.44157603e-07 2.68167741e-02 -1.02036208e-01)	(-2.97414689e-06 8.28275960e-06 -6.47128573e-04)
31              	(-1.54291824e-06 2.26316914e-02 -9.55421758e-02)	(1.29817793e-07 2.26342908e-02 -9.48452599e-02)	(-1.67273603e-06 -2.59943982e-06 -6.96915823e-04)
32              	(-1.20859390e-06 2.20286523e-02 -9.25245865e-02)	(3.35320138e-08 2.20631352e-02 -9.18534727e-02)	(-1.24212591e-06 -3.44828913e-05 -6.71113762e-04)
33              	(-1.01770118e-06 2.49450314e-02 -9.41119351e-02)	(-2.11757225e-08 2.49992479e-02 -9.35360004e-02)	(-9.96525455e-07 -5.42165696e-05 -5.75934772e-04)
34              	(-4.88716869e-07 2.92680400e-02 -9.83100057e-02)	(-3.05290263e-08 2.93155235e-02 -9.78425290e-02)	(-4.58187843e-07 -4.74834265e-05 -4.67476688e-04)
35              	(-3.43693312e-07 3.30762664e-02 -1.05466513e-01)	(-4.37389762e-08 3.31003604e-02 -1.05070683e-01)	(-2.99954336e-07 -2.40939614e-05 -3.95830802e-04)
36              	(-2.41903241e-07 3.52921752e-02 -1.14486887e-01)	(-3.95380944e-08 3.53040158e-02 -1.14118289e-01)	(-2.02365146e-07 -1.18405781e-05 -3.68597638e-04)
37              	(1.02967730e-07 3.62714323e-02 -1.24765802e-01)	(-5.35327354e-08 3.62603017e-02 -1.24358982e-01)	(1.56500465e-07 1.11305539e-05 -4.06819429e-04)
38              	(5.41683620e-07 3.70352333e-02 -1.35292068e-01)	(-2.70451819e-08 3.69905985e-02 -1.34795241e-01)	(5.68728802e-07 4.46348001e-05 -4.96826827e-04)
39              	(8.63894981e-07 3.84681704e-02 -1.45324742e-01)	(5.75146952e-08 3.83914286e-02 -1.44705626e-01)	(8.06380286e-07 7.67417624e-05 -6.19116216e-04)
40              	(1.22097976e-06 4.04656838e-02 -1.55215091e-01)	(1.87340994e-07 4.03565255e-02 -1.54472398e-01)	(1.03363877e-06 1.09158253e-04 -7.42693168e-04)
41              	(1.71060319e-06 4.26444733e-02 -1.64455308e-01)	(3.40925097e-07 4.25058073e-02 -1.63582916e-01)	(1.36967809e-06 1.38665946e-04 -8.72392467e-04)
42              	(2.30512566e-06 4.47103066e-02 -1.72470065e-01)	(4.79144599e-07 4.45453388e-02 -1.71468232e-01)	(1.82598106e-06 1.64967791e-04 -1.00183250e-03)
43              	(2.94024629e-06 4.63683285e-02 -1.79216505e-01)	(5.67195885e-07 4.61784895e-02 -1.78084920e-01)	(2.37305041e-06 1.89838971e-04 -1.13158485e-03)
44              	(3.54764336e-06 4.79068598e-02 -1.85045661e-01)	(5.88187209e-07 4.76927978e-02 -1.83787497e-01)	(2.95945615e-06 2.14061933e-04 -1.25816417e-03)
45              	(4.14347499e-06 4.96811883e-02 -1.90540858e-01)	(5.59743926e-07 4.94430838e-02 -1.89162666e-01)	(3.58373106e-06 2.38104473e-04 -1.37819191e-03)
46              	(4.70902683e-06 5.20398760e-02 -1.95932411e-01)	(5.04466663e-07 5.17783673e-02 -1.94441910e-01)	(4.20456017e-06 2.61508763e-04 -1.49050017e-03)
47              	(5.11528933e-06 5.49817660e-02 -2.01399759e-01)	(4.40241286e-07 5.46946820e-02 -1.99799659e-01)	(4.67504804e-06 2.87084009e-04 -1.60010018e-03)
48              	(5.49085720e-06 5.82077227e-02 -2.07018720e-01)	(3.84596812e-07 5.78893956e-02 -2.05310506e-01)	(5.10626039e-06 3.18327099e-04 -1.70821464e-03)
49              	(5.84216747e-06 6.14878917e-02 -2.13033771e-01)	(3.52131926e-07 6.11323544e-02 -2.11217424e-01)	(5.49003555e-06 3.55537287e-04 -1.81634774e-03)
50              	(6.10004407e-06 6.46856682e-02 -2.19411639e-01)	(3.34985628e-07 6.42890119e-02 -2.17487097e-01)	(5.76505844e-06 3.96656284e-04 -1.92454159e-03)
51              	(6.30997447e-06 6.77345450e-02 -2.25878154e-01)	(3.27714288e-07 6.72956805e-02 -2.23846052e-01)	(5.98226018e-06 4.38864485e-04 -2.03210206e-03)
52              	(6.47138957e-06 7.07711720e-02 -2.32072132e-01)	(3.26439991e-07 7.02900626e-02 -2.29936332e-01)	(6.14494957e-06 4.81109425e-04 -2.13580001e-03)
53              	(6.62384005e-06 7.39062281e-02 -2.37825901e-01)	(3.28386318e-07 7.33839509e-02 -2.35593330e-01)	(6.29545373e-06 5.22277172e-04 -2.23257058e-03)
54              	(6.68441754e-06 7.71330987e-02 -2.43315087e-01)	(3.20289104e-07 7.65709270e-02 -2.40996288e-01)	(6.36412844e-06 5.62171760e-04 -2.31879959e-03)
55              	(6.68222667e-06 8.04597746e-02 -2.48830451e-01)	(3.00770067e-07 7.98591767e-02 -2.46437648e-01)	(6.38145660e-06 6.00597878e-04 -2.39280330e-03)
56              	(6.59553327e-06 8.38300628e-02 -2.54617666e-01)	(2.77425301e-07 8.31923285e-02 -2.52164035e-01)	(6.31810796e-06 6.37734328e-04 -2.45363089e-03)
57              	(6.44831447e-06 8.72756575e-02 -2.60931142e-01)	(2.54129099e-07 8.66022214e-02 -2.58428904e-01)	(6.19418537e-06 6.73436119e-04 -2.50223791e-03)
58              	(6.26449162e-06 9.09246054e-02 -2.67829654e-01)	(2.31955691e-07 9.02164726e-02 -2.65289025e-01)	(6.03253593e-06 7.08132857e-04 -2.54062884e-03)
59              	(6.03817947e-06 9.48210360e-02 -2.75191989e-01)	(2.13297811e-07 9.40789179e-02 -2.72621390e-01)	(5.82488166e-06 7.42118080e-04 -2.57059838e-03)
60              	(5.78219820e-06 9.89535857e-02 -2.82876745e-01)	(1.97354425e-07 9.81776940e-02 -2.80282698e-01)	(5.58484377e-06 7.75891682e-04 -2.59404687e-03)
61              	(5.51139678e-06 1.03315149e-01 -2.90833683e-01)	(1.84045815e-07 1.02505334e-01 -2.88221170e-01)	(5.32735097e-06 8.09815161e-04 -2.61251260e-03)
62              	(5.21327896e-06 1.07882071e-01 -2.99189596e-01)	(1.73125067e-07 1.07037779e-01 -2.96561674e-01)	(5.04015390e-06 8.44292253e-04 -2.62792196e-03)
63              	(4.89868300e-06 1.12618203e-01 -3.07977740e-01)	(1.64260090e-07 1.11738572e-01 -3.05335480e-01)	(4.73442291e-06 8.79631086e-04 -2.64226018e-03)
64              	(4.59050788e-06 1.17543863e-01 -3.17208379e-01)	(1.56713039e-07 1.16627899e-01 -3.14551083e-01)	(4.43379484e-06 9.15964255e-04 -2.65729655e-03)
65              	(4.30969169e-06 1.22691882e-01 -3.26859860e-01)	(1.49781945e-07 1.21738407e-01 -3.24185373e-01)	(4.15990975e-06 9.53475145e-04 -2.67448687e-03)
66              	(4.05949657e-06 1.28089888e-01 -3.36971112e-01)	(1.43878676e-07 1.27097511e-01 -3.34275924e-01)	(3.91561790e-06 9.92377236e-04 -2.69518827e-03)
67              	(3.85109143e-06 1.33744932e-01 -3.47619869e-01)	(1.39782550e-07 1.32712021e-01 -3.44899705e-01)	(3.71130888e-06 1.03291107e-03 -2.72016385e-03)
68              	(3.68624217e-06 1.39679836e-01 -3.58835927e-01)	(1.36155043e-07 1.38604716e-01 -3.56085402e-01)	(3.55008712e-06 1.07512049e-03 -2.75052486e-03)
69              	(3.54379101e-06 1.45890635e-01 -3.70576036e-01)	(1.31719738e-07 1.44771360e-01 -3.67788777e-01)	(3.41207127e-06 1.11927507e-03 -2.78725920e-03)
70              	(3.42460975e-06 1.52412715e-01 -3.82848868e-01)	(1.25697416e-07 1.51247017e-01 -3.80017954e-01)	(3.29891233e-06 1.16569844e-03 -2.83091426e-03)
71              	(3.31223703e-06 1.59262385e-01 -3.95765726e-01)	(1.17216212e-07 1.58047655e-01 -3.92883408e-01)	(3.19502082e-06 1.21472943e-03 -2.88231770e-03)
72              	(3.21406247e-06 1.66443682e-01 -4.09377781e-01)	(1.06120091e-07 1.65176985e-01 -4.06435508e-01)	(3.10794238e-06 1.26669736e-03 -2.94227324e-03)
73              	(3.14060980e-06 1.73929828e-01 -4.23655193e-01)	(9.34519263e-08 1.72607921e-01 -4.20643700e-01)	(3.04715788e-06 1.32190744e-03 -3.01149353e-03)
74              	(3.07428785e-06 1.81695023e-01 -4.38561310e-01)	(7.97740986e-08 1.80314372e-01 -4.35470773e-01)	(2.99451375e-06 1.38065106e-03 -3.09053641e-03)
75              	(3.01874030e-06 1.89763969e-01 -4.54114409e-01)	(6.41831147e-08 1.88320718e-01 -4.50934404e-01)	(2.95455718e-06 1.44325141e-03 -3.18000455e-03)
76              	(2.96683376e-06 1.98136317e-01 -4.70306652e-01)	(4.64509695e-08 1.96626436e-01 -4.67026373e-01)	(2.92038279e-06 1.50988121e-03 -3.28027965e-03)
77              	(2.91270699e-06 2.06783591e-01 -4.87157293e-01)	(2.70211004e-08 2.05202994e-01 -4.83765642e-01)	(2.88568589e-06 1.58059664e-03 -3.39165137e-03)
78              	(2.84269113e-06 2.15733327e-01 -5.04652385e-01)	(5.66875399e-09 2.14077875e-01 -5.01138129e-01)	(2.83702237e-06 1.65545185e-03 -3.51425548e-03)
