# Force coefficients
# dragDir       : (1.00000000e+00 0.00000000e+00 0.00000000e+00)
# sideDir       : (0.00000000e+00 0.00000000e+00 -1.00000000e+00)
# liftDir       : (0.00000000e+00 1.00000000e+00 0.00000000e+00)
# rollAxis      : (1.00000000e+00 0.00000000e+00 0.00000000e+00)
# pitchAxis     : (0.00000000e+00 0.00000000e+00 -1.00000000e+00)
# yawAxis       : (0.00000000e+00 1.00000000e+00 0.00000000e+00)
# magUInf       : 2.00000000e+00
# lRef          : 1.50000000e+00
# Aref          : 2.06603698e-01
# CofR          : (0.00000000e+00 0.00000000e+00 0.00000000e+00)
#
# Time          	Cd              	Cs              	Cl              	CmRoll          	CmPitch         	CmYaw           	Cd(f)           	Cd(r)           	Cs(f)           	Cs(r)           	Cl(f)           	Cl(r)           
1               	8.28488596e-01	1.18049662e-03	-1.29842374e-04	1.10290766e-08	-9.01066509e-05	-4.26790581e-04	4.14244309e-01	4.14244287e-01	1.63457727e-04	1.01703889e-03	-1.55027838e-04	2.51854637e-05
2               	7.42578102e-01	1.14308974e-03	-2.63762321e-04	8.32147695e-09	-1.35266178e-04	-4.07281055e-04	3.71289059e-01	3.71289043e-01	1.64263815e-04	9.78825926e-04	-2.67147339e-04	3.38501743e-06
3               	2.09960725e-01	3.24552062e-04	-2.05334760e-04	-3.60329534e-09	-9.04232882e-05	-9.85346427e-05	1.04980359e-01	1.04980366e-01	6.37413883e-05	2.60810674e-04	-1.93090668e-04	-1.22440919e-05
4               	-2.66662532e-01	-4.50269572e-04	-1.95115249e-05	-1.76196414e-08	4.92893963e-06	1.84881626e-04	-1.33331284e-01	-1.33331248e-01	-4.02531601e-05	-4.10016412e-04	-4.82682280e-06	-1.46847021e-05
5               	-4.03025619e-01	-6.45541277e-04	2.10033761e-04	-1.17093697e-08	9.66144737e-05	2.23052886e-04	-2.01512821e-01	-2.01512798e-01	-9.97177522e-05	-5.45823525e-04	2.01631354e-04	8.40240675e-06
6               	-2.00361215e-01	-2.82955485e-04	2.82752986e-04	-3.05708280e-09	1.13177643e-04	6.35571897e-05	-1.00180611e-01	-1.00180605e-01	-7.79205528e-05	-2.05034932e-04	2.54554136e-04	2.81988504e-05
7               	8.20013945e-02	2.48747897e-04	8.52744819e-05	-1.91489553e-09	7.72971115e-05	-1.04624754e-04	4.10006953e-02	4.10006991e-02	1.97491944e-05	2.28998703e-04	1.19934352e-04	-3.46598706e-05
8               	2.50425213e-01	5.97958752e-04	-1.55326995e-04	-1.92882586e-09	-1.42317312e-05	-1.08322944e-04	1.25212605e-01	1.25212608e-01	1.90656432e-04	4.07302320e-04	-9.18952289e-05	-6.34317665e-05
9               	2.27897432e-01	3.55468703e-04	-2.36030798e-04	-9.39127012e-09	-9.37859937e-05	-5.67106242e-05	1.13948707e-01	1.13948725e-01	1.21023727e-04	2.34444976e-04	-2.11801393e-04	-2.42294051e-05
10              	7.78603778e-02	-1.10203694e-04	-4.62828481e-05	-1.25105816e-08	-1.20693193e-04	5.88796773e-07	3.89301764e-02	3.89302014e-02	-5.45130500e-05	-5.56906436e-05	-1.43834618e-04	9.75517694e-05
11              	-5.03539478e-02	-2.58096616e-04	1.78610296e-04	-3.51815151e-09	-7.53594263e-05	7.44138871e-05	-2.51769774e-02	-2.51769704e-02	-5.46344208e-05	-2.03462195e-04	1.39457217e-05	1.64664574e-04
12              	-8.38273352e-02	-2.53633468e-04	3.56994956e-04	-3.74738429e-08	-2.82472620e-05	3.84450346e-05	-4.19137051e-02	-4.19136301e-02	-8.83716996e-05	-1.65261769e-04	1.50250216e-04	2.06744740e-04
13              	-3.10925267e-02	-9.24702163e-05	3.99397004e-04	-1.81894683e-08	-3.22011515e-05	-2.30018447e-05	-1.55462815e-02	-1.55462452e-02	-6.92369529e-05	-2.32332634e-05	1.67497351e-04	2.31899654e-04
14              	4.46649287e-02	7.57901452e-05	2.68199798e-04	-2.58366171e-08	-5.64532928e-05	-5.06730601e-05	2.23324385e-02	2.23324902e-02	-1.27779875e-05	8.85681327e-05	7.76466060e-05	1.90553192e-04
15              	8.75286874e-02	1.08444619e-04	5.38130891e-05	-2.48404770e-08	-6.79530234e-05	-3.34912050e-05	4.37643189e-02	4.37643685e-02	2.07311047e-05	8.77135147e-05	-4.10464788e-05	9.48595680e-05
16              	8.08808485e-02	2.03607290e-05	-5.32258934e-05	-2.07933081e-08	-7.19967418e-05	1.94014177e-06	4.04404035e-02	4.04404451e-02	1.21205063e-05	8.24022273e-06	-9.86096885e-05	4.53837951e-05
17              	4.32991780e-02	-7.51322092e-05	3.14827077e-05	-1.88684391e-08	-7.73319051e-05	2.73039715e-05	2.16495701e-02	2.16496079e-02	-1.02621331e-05	-6.48700761e-05	-6.15905513e-05	9.30732590e-05
18              	1.09351656e-02	-1.11626390e-04	1.97180400e-04	-1.71717662e-08	-8.12808422e-05	2.81311000e-05	5.46756564e-03	5.46759999e-03	-2.76820950e-05	-8.39442951e-05	1.73093577e-05	1.79871042e-04
19              	4.14059778e-03	-8.34269844e-05	2.97998498e-04	-1.49302292e-08	-7.46233186e-05	8.02448675e-06	2.07028396e-03	2.07031382e-03	-3.36890054e-05	-4.97379789e-05	7.43759304e-05	2.23622568e-04
20              	2.03009062e-02	-2.95052430e-05	2.73088661e-04	-1.15991741e-08	-6.28212044e-05	-7.30520719e-06	1.01504415e-02	1.01504647e-02	-2.20578287e-05	-7.44741431e-06	7.37231261e-05	1.99365535e-04
21              	4.27682171e-02	-3.06297510e-06	1.78373466e-04	-8.83512619e-09	-5.71781512e-05	-1.28694134e-05	2.13840997e-02	2.13841174e-02	-1.44009010e-05	1.13379259e-05	3.20085817e-05	1.46364884e-04
22              	5.54094803e-02	-1.30325425e-05	1.07106113e-04	-7.47861589e-09	-6.28084273e-05	-9.33940559e-06	2.77047327e-02	2.77047476e-02	-1.58556769e-05	2.82313433e-06	-9.25537095e-06	1.16361484e-04
23              	5.33254969e-02	-4.76364020e-05	1.07475593e-04	-7.11308087e-09	-7.29930740e-05	-4.98439142e-06	2.66627414e-02	2.66627556e-02	-2.88025924e-05	-1.88338096e-05	-1.92552776e-05	1.26730870e-04
24              	4.34541195e-02	-7.07798694e-05	1.70316542e-04	-7.93325641e-09	-8.19606785e-05	-3.90554284e-06	2.17270518e-02	2.17270677e-02	-3.92954776e-05	-3.14843919e-05	3.19759229e-06	1.67118949e-04
25              	3.55168107e-02	-7.79609245e-05	2.51758678e-04	-8.33796211e-09	-9.02526229e-05	-9.87153666e-06	1.77583970e-02	1.77584137e-02	-4.88519989e-05	-2.91089256e-05	3.56267163e-05	2.16131962e-04
26              	3.46850240e-02	-6.26780664e-05	2.99642152e-04	-9.16595663e-09	-9.50722514e-05	-1.47615034e-05	1.73425028e-02	1.73425212e-02	-4.61005366e-05	-1.65775298e-05	5.47488247e-05	2.44893328e-04
27              	3.93959209e-02	-4.31847127e-05	2.98180701e-04	-9.78502113e-09	-9.60295936e-05	-1.73175930e-05	1.96979507e-02	1.96979702e-02	-3.89099494e-05	-4.27476335e-06	5.30607570e-05	2.45119944e-04
28              	4.46611568e-02	-3.45415466e-05	2.78179554e-04	-1.02272542e-08	-9.91173291e-05	-1.67694974e-05	2.23305682e-02	2.23305886e-02	-3.40402708e-05	-5.01275884e-07	3.99724477e-05	2.38207106e-04
29              	4.65443018e-02	-4.12521336e-05	2.69398542e-04	-9.85935497e-09	-1.05930407e-04	-1.61274331e-05	2.32721410e-02	2.32721608e-02	-3.67534999e-05	-4.49863370e-06	2.87688640e-05	2.40629678e-04
30              	4.44047641e-02	-5.40623808e-05	2.92718722e-04	-9.04839745e-09	-1.17359134e-04	-1.73182410e-05	2.22023730e-02	2.22023911e-02	-4.43494314e-05	-9.71294942e-06	2.90002267e-05	2.63718495e-04
31              	4.02787911e-02	-6.40366054e-05	3.52049482e-04	-7.92587820e-09	-1.34369319e-04	-2.02254791e-05	2.01393876e-02	2.01394035e-02	-5.22437818e-05	-1.17928236e-05	4.16554221e-05	3.10394060e-04
32              	3.69712154e-02	-6.97473267e-05	4.09261707e-04	-7.02053963e-09	-1.49341173e-04	-2.35651510e-05	1.84856007e-02	1.84856147e-02	-5.84388144e-05	-1.13085123e-05	5.52896800e-05	3.53972027e-04
33              	3.57778452e-02	-7.17065964e-05	4.43612683e-04	-6.41283969e-09	-1.59369816e-04	-2.58368143e-05	1.78889162e-02	1.78889290e-02	-6.16901125e-05	-1.00164839e-05	6.24365256e-05	3.81176157e-04
34              	3.61483848e-02	-7.16073816e-05	4.61833463e-04	-6.22084206e-09	-1.68179611e-04	-2.62804401e-05	1.80741862e-02	1.80741986e-02	-6.20841309e-05	-9.52325070e-06	6.27371206e-05	3.99096342e-04
35              	3.67340365e-02	-7.39013387e-05	4.69431769e-04	-6.38930031e-09	-1.76218205e-04	-2.67349002e-05	1.83670119e-02	1.83670246e-02	-6.36855695e-05	-1.02157692e-05	5.84976802e-05	4.10934089e-04
36              	3.65902529e-02	-8.01139680e-05	4.84668285e-04	-6.67765069e-09	-1.86142387e-04	-2.86527181e-05	1.82951198e-02	1.82951331e-02	-6.87097020e-05	-1.14042659e-05	5.61917552e-05	4.28476530e-04
37              	3.57013986e-02	-9.07065582e-05	5.15829997e-04	-6.89216494e-09	-1.99208196e-04	-3.26487540e-05	1.78506924e-02	1.78507062e-02	-7.80020331e-05	-1.27045251e-05	5.87068025e-05	4.57123195e-04
38              	3.46416074e-02	-1.02259457e-04	5.51956519e-04	-6.81491291e-09	-2.11540342e-04	-3.76480687e-05	1.73207969e-02	1.73208105e-02	-8.87777974e-05	-1.34816600e-05	6.44379171e-05	4.87518601e-04
39              	3.40184045e-02	-1.12424547e-04	5.85168701e-04	-6.91242658e-09	-2.22277497e-04	-4.22488083e-05	1.70091954e-02	1.70092092e-02	-9.84610819e-05	-1.39634654e-05	7.03068531e-05	5.14861848e-04
40              	3.40878716e-02	-1.18932982e-04	6.14568222e-04	-6.72140038e-09	-2.33084248e-04	-4.49096700e-05	1.70439291e-02	1.70439425e-02	-1.04376161e-04	-1.45568210e-05	7.41998631e-05	5.40368359e-04
41              	3.46031150e-02	-1.21890383e-04	6.43460655e-04	-6.06122480e-09	-2.45364525e-04	-4.57966023e-05	1.73015515e-02	1.73015636e-02	-1.06741794e-04	-1.51485894e-05	7.63658025e-05	5.67094853e-04
42              	3.50893088e-02	-1.25358241e-04	6.73057345e-04	-5.41287503e-09	-2.58392870e-04	-4.70401078e-05	1.75446490e-02	1.75446598e-02	-1.09719228e-04	-1.56390129e-05	7.81358025e-05	5.94921542e-04
43              	3.52127248e-02	-1.31985544e-04	7.02778643e-04	-4.93344274e-09	-2.71050033e-04	-4.99314737e-05	1.76063575e-02	1.76063673e-02	-1.15924246e-04	-1.60612983e-05	8.03392890e-05	6.22439354e-04
44              	3.49536376e-02	-1.39791522e-04	7.33508440e-04	-4.49786732e-09	-2.83271912e-04	-5.36399949e-05	1.74768143e-02	1.74768233e-02	-1.23535756e-04	-1.62557661e-05	8.34823082e-05	6.50026132e-04
45              	3.45074696e-02	-1.45169562e-04	7.70381906e-04	-4.14869632e-09	-2.97034990e-04	-5.63032811e-05	1.72537307e-02	1.72537390e-02	-1.28888062e-04	-1.62815000e-05	8.81559625e-05	6.82225943e-04
46              	3.40708920e-02	-1.49107448e-04	8.11329640e-04	-3.80555935e-09	-3.12292552e-04	-5.80382162e-05	1.70354422e-02	1.70354498e-02	-1.32591940e-04	-1.65155080e-05	9.33722678e-05	7.17957372e-04
47              	3.37191612e-02	-1.53479843e-04	8.53862271e-04	-3.47123216e-09	-3.28602266e-04	-5.95340214e-05	1.68595771e-02	1.68595841e-02	-1.36273943e-04	-1.72059003e-05	9.83288694e-05	7.55533401e-04
48              	3.34170466e-02	-1.59222757e-04	8.94220617e-04	-3.43441150e-09	-3.44540005e-04	-6.14869695e-05	1.67085198e-02	1.67085267e-02	-1.41098348e-04	-1.81244089e-05	1.02570303e-04	7.91650313e-04
49              	3.30949268e-02	-1.66718397e-04	9.31315568e-04	-3.37661299e-09	-3.59468034e-04	-6.42563741e-05	1.65474600e-02	1.65474668e-02	-1.47615573e-04	-1.91028244e-05	1.06189751e-04	8.25125818e-04
50              	3.27203848e-02	-1.76341295e-04	9.70700123e-04	-3.17094866e-09	-3.75135766e-04	-6.81050344e-05	1.63601892e-02	1.63601956e-02	-1.56275682e-04	-2.00656132e-05	1.10214296e-04	8.60485827e-04
51              	3.23106350e-02	-1.87867429e-04	1.01803160e-03	-2.99285407e-09	-3.93601205e-04	-7.27600120e-05	1.61553145e-02	1.61553205e-02	-1.66693726e-04	-2.11737023e-05	1.15414594e-04	9.02617005e-04
52              	3.19159126e-02	-2.01360653e-04	1.07706140e-03	-2.82952419e-09	-4.16319677e-04	-7.80769157e-05	1.59579535e-02	1.59579591e-02	-1.78757242e-04	-2.26034111e-05	1.22211024e-04	9.54850377e-04
53              	3.15803239e-02	-2.16501322e-04	1.14588927e-03	-2.74041259e-09	-4.42807109e-04	-8.39040458e-05	1.57901592e-02	1.57901647e-02	-1.92154707e-04	-2.43466153e-05	1.30137527e-04	1.01575175e-03
54              	3.13179367e-02	-2.33223267e-04	1.21773674e-03	-2.73868168e-09	-4.70660510e-04	-9.03090924e-05	1.56589656e-02	1.56589711e-02	-2.06920726e-04	-2.63025409e-05	1.38207862e-04	1.07952888e-03
55              	3.11073170e-02	-2.52055833e-04	1.28907706e-03	-2.74475345e-09	-4.98447503e-04	-9.75423433e-05	1.55536558e-02	1.55536612e-02	-2.23570260e-04	-2.84855731e-05	1.46091027e-04	1.14298603e-03
56              	3.09176189e-02	-2.72559102e-04	1.36052875e-03	-2.78303021e-09	-5.26268712e-04	-1.05464029e-04	1.54588067e-02	1.54588122e-02	-2.41743580e-04	-3.08155219e-05	1.53995666e-04	1.20653309e-03
57              	3.07369505e-02	-2.94414057e-04	1.43547718e-03	-2.81712794e-09	-5.55312144e-04	-1.13935390e-04	1.53684724e-02	1.53684781e-02	-2.61142419e-04	-3.32716387e-05	1.62426447e-04	1.27305073e-03
58              	3.05692494e-02	-3.17512915e-04	1.51770962e-03	-2.82472330e-09	-5.87018107e-04	-1.22891212e-04	1.52846219e-02	1.52846275e-02	-2.81647670e-04	-3.58652454e-05	1.71836704e-04	1.34587292e-03
59              	3.04215194e-02	-3.41808394e-04	1.60763855e-03	-2.83569073e-09	-6.21606359e-04	-1.32284475e-04	1.52107569e-02	1.52107625e-02	-3.03188672e-04	-3.86197218e-05	1.82212918e-04	1.42542564e-03
60              	3.02952191e-02	-3.67215918e-04	1.70264853e-03	-2.76209492e-09	-6.58138593e-04	-1.42084913e-04	1.51476068e-02	1.51476123e-02	-3.25692872e-04	-4.15230464e-05	1.93185674e-04	1.50946286e-03
61              	3.01858701e-02	-3.93923559e-04	1.80087865e-03	-2.65305634e-09	-6.95904209e-04	-1.52412030e-04	1.50929324e-02	1.50929377e-02	-3.49373809e-04	-4.45497495e-05	2.04535116e-04	1.59634353e-03
62              	3.00874597e-02	-4.21797756e-04	1.90250513e-03	-2.49507442e-09	-7.35001032e-04	-1.63253800e-04	1.50437274e-02	1.50437323e-02	-3.74152678e-04	-4.76450780e-05	2.16251533e-04	1.68625360e-03
63              	2.99955446e-02	-4.50827154e-04	2.00876020e-03	-2.32046184e-09	-7.75865044e-04	-1.74598253e-04	1.49977700e-02	1.49977746e-02	-4.00011830e-04	-5.08153244e-05	2.28515058e-04	1.78024515e-03
64              	2.99066995e-02	-4.81316993e-04	2.12171559e-03	-2.14568669e-09	-8.19257685e-04	-1.86486329e-04	1.49533476e-02	1.49533519e-02	-4.27144825e-04	-5.41721677e-05	2.41600111e-04	1.88011548e-03
65              	2.98208264e-02	-5.13181277e-04	2.24214194e-03	-1.94921621e-09	-8.65470639e-04	-1.98834235e-04	1.49104112e-02	1.49104151e-02	-4.55424873e-04	-5.77564036e-05	2.55600329e-04	1.98654161e-03
66              	2.97389850e-02	-5.46784343e-04	2.36976473e-03	-1.80604992e-09	-9.14409611e-04	-2.11797874e-04	1.48694907e-02	1.48694943e-02	-4.85190045e-04	-6.15942977e-05	2.70472755e-04	2.09929198e-03
67              	2.96628252e-02	-5.82204742e-04	2.50417769e-03	-1.66903947e-09	-9.65921040e-04	-2.25450519e-04	1.48314109e-02	1.48314143e-02	-5.16552891e-04	-6.56518519e-05	2.86167807e-04	2.21800989e-03
68              	2.95942191e-02	-6.19177190e-04	2.64534538e-03	-1.51861346e-09	-1.02000255e-03	-2.39726193e-04	1.47971080e-02	1.47971111e-02	-5.49314788e-04	-6.98624021e-05	3.02670133e-04	2.34267524e-03
69              	2.95333470e-02	-6.57624960e-04	2.79371463e-03	-1.34657933e-09	-1.07684220e-03	-2.54605897e-04	1.47666722e-02	1.47666749e-02	-5.83418378e-04	-7.42065826e-05	3.20015116e-04	2.47369952e-03
70              	2.94790892e-02	-6.98024713e-04	2.94986741e-03	-1.31952607e-09	-1.13666591e-03	-2.70255390e-04	1.47395433e-02	1.47395459e-02	-6.19267746e-04	-7.87569668e-05	3.38267792e-04	2.61159962e-03
71              	2.94302208e-02	-7.40275221e-04	3.11427516e-03	-1.51759473e-09	-1.19964302e-03	-2.86604454e-04	1.47151089e-02	1.47151119e-02	-6.56742065e-04	-8.35331559e-05	3.57494557e-04	2.75678060e-03
72              	2.93845413e-02	-7.84487398e-04	3.28664832e-03	-1.69270493e-09	-1.26564925e-03	-3.03680540e-04	1.46922689e-02	1.46922723e-02	-6.95924239e-04	-8.85631590e-05	3.77674912e-04	2.90897341e-03
73              	2.93405788e-02	-8.30833788e-04	3.46684392e-03	-1.83997191e-09	-1.33465252e-03	-3.21542123e-04	1.46702876e-02	1.46702913e-02	-7.36959017e-04	-9.38747709e-05	3.98769439e-04	3.06807448e-03
74              	2.92981168e-02	-8.79256450e-04	3.65522398e-03	-2.01447455e-09	-1.40681056e-03	-3.40174062e-04	1.46490564e-02	1.46490604e-02	-7.79802287e-04	-9.94541628e-05	4.20801426e-04	3.23442256e-03
75              	2.92559861e-02	-9.29441589e-04	3.85207800e-03	-2.23142183e-09	-1.48222260e-03	-3.59478203e-04	1.46279908e-02	1.46279953e-02	-8.24198997e-04	-1.05242592e-04	4.43816400e-04	3.40826160e-03
76              	2.92137091e-02	-9.81709748e-04	4.05747761e-03	-2.44327690e-09	-1.56089170e-03	-3.79589260e-04	1.46068521e-02	1.46068570e-02	-8.70444134e-04	-1.11265614e-04	4.67847108e-04	3.58963051e-03
77              	2.91719105e-02	-1.03661945e-03	4.27142436e-03	-2.62580128e-09	-1.64281180e-03	-4.00728437e-04	1.45859526e-02	1.45859579e-02	-9.19038162e-04	-1.17581289e-04	4.92900382e-04	3.77852397e-03
78              	2.91314883e-02	-1.09420439e-03	4.49361008e-03	-2.73932174e-09	-1.72786567e-03	-4.22905093e-04	1.45657414e-02	1.45657469e-02	-9.70007290e-04	-1.24197105e-04	5.18939367e-04	3.97467071e-03
79              	2.90925987e-02	-1.15405707e-03	4.72383933e-03	-2.89940593e-09	-1.81599391e-03	-4.45949813e-04	1.45462965e-02	1.45463023e-02	-1.02297835e-03	-1.31078721e-04	5.45925750e-04	4.17791358e-03
80              	2.90543844e-02	-1.21610292e-03	4.96237482e-03	-3.17021409e-09	-1.90730022e-03	-4.69827013e-04	1.45271890e-02	1.45271954e-02	-1.07787847e-03	-1.38224445e-04	5.73887190e-04	4.38848763e-03
81              	2.90165981e-02	-1.28046787e-03	5.20979494e-03	-3.54997296e-09	-2.00200877e-03	-4.94591073e-04	1.45082955e-02	1.45083026e-02	-1.13482501e-03	-1.45642864e-04	6.02888704e-04	4.60690624e-03
82              	2.89799999e-02	-1.34759523e-03	5.46661908e-03	-4.04354031e-09	-2.10031171e-03	-5.20416508e-04	1.44899959e-02	1.44900040e-02	-1.19421412e-03	-1.53381109e-04	6.32997826e-04	4.83362125e-03
83              	2.89456487e-02	-1.41770994e-03	5.73336615e-03	-4.60546124e-09	-2.20240847e-03	-5.47401028e-04	1.44728198e-02	1.44728290e-02	-1.25625600e-03	-1.61453944e-04	6.64274604e-04	5.06909155e-03
84              	2.89143160e-02	-1.49101701e-03	6.00999051e-03	-5.09875362e-09	-2.30826326e-03	-5.75617599e-04	1.44571529e-02	1.44571631e-02	-1.32112610e-03	-1.69890905e-04	6.96731994e-04	5.31325852e-03
85              	2.88873606e-02	-1.56706183e-03	6.29627954e-03	-5.67793733e-09	-2.41778302e-03	-6.04895197e-04	1.44436746e-02	1.44436860e-02	-1.38842611e-03	-1.78635716e-04	7.30356753e-04	5.56592279e-03
86              	2.88651958e-02	-1.64522184e-03	6.59199965e-03	-6.26000882e-09	-2.53087619e-03	-6.34995141e-04	1.44325916e-02	1.44326041e-02	-1.45760606e-03	-1.87615781e-04	7.65123633e-04	5.82687602e-03
87              	2.88485716e-02	-1.72554277e-03	6.89769967e-03	-6.87813578e-09	-2.64775442e-03	-6.65922392e-04	1.44242789e-02	1.44242927e-02	-1.52869378e-03	-1.96848991e-04	8.01095415e-04	6.09660425e-03
88              	2.88377835e-02	-1.80824245e-03	7.21381352e-03	-7.58427528e-09	-2.76857817e-03	-6.97754883e-04	1.44188842e-02	1.44188993e-02	-1.60187611e-03	-2.06366342e-04	8.38328595e-04	6.37548493e-03
89              	2.88324601e-02	-1.89387118e-03	7.54129538e-03	-8.30224336e-09	-2.89371422e-03	-7.30712576e-04	1.44162218e-02	1.44162384e-02	-1.67764816e-03	-2.16223012e-04	8.76933472e-04	6.66436191e-03
90              	2.88330472e-02	-1.98233931e-03	7.87983085e-03	-9.02559323e-09	-3.02304198e-03	-7.64775865e-04	1.44165146e-02	1.44165326e-02	-1.75594552e-03	-2.26393790e-04	9.16873443e-04	6.96295741e-03
91              	2.88405985e-02	-2.07307278e-03	8.22890353e-03	-9.86601689e-09	-3.15636902e-03	-7.99725936e-04	1.44202894e-02	1.44203091e-02	-1.83626232e-03	-2.36810452e-04	9.58082745e-04	7.27082079e-03
92              	2.88565767e-02	-2.16591426e-03	8.58741843e-03	-1.08018993e-08	-3.29328379e-03	-8.35493934e-04	1.44282775e-02	1.44282991e-02	-1.91845107e-03	-2.47463197e-04	1.00042543e-03	7.58699300e-03
93              	2.88805225e-02	-2.26136120e-03	8.95566062e-03	-1.17490220e-08	-3.43389181e-03	-8.72265357e-04	1.44402495e-02	1.44402730e-02	-2.00294596e-03	-2.58415244e-04	1.04393851e-03	7.91172212e-03
94              	2.89113570e-02	-2.35966890e-03	9.33438650e-03	-1.26332655e-08	-3.57847765e-03	-9.10129528e-04	1.44556659e-02	1.44556911e-02	-2.08996398e-03	-2.69704923e-04	1.08871561e-03	8.24567090e-03
95              	2.89495866e-02	-2.46034332e-03	9.72308034e-03	-1.35241447e-08	-3.72683932e-03	-9.48897363e-04	1.44747798e-02	1.44748068e-02	-2.17906902e-03	-2.81274296e-04	1.13470085e-03	8.58837949e-03
96              	2.89957941e-02	-2.56285987e-03	1.01207628e-02	-1.44331887e-08	-3.87859667e-03	-9.88373454e-04	1.44978826e-02	1.44979115e-02	-2.26980339e-03	-2.93056480e-04	1.18178473e-03	8.93897806e-03
97              	2.90504326e-02	-2.66690142e-03	1.05259110e-02	-1.54271520e-08	-4.03317508e-03	-1.02843928e-03	1.45252009e-02	1.45252317e-02	-2.36188999e-03	-3.05011425e-04	1.22978043e-03	9.29613058e-03
98              	2.91153453e-02	-2.77269902e-03	1.09374200e-02	-1.65069041e-08	-4.19015660e-03	-1.06917667e-03	1.45576562e-02	1.45576892e-02	-2.45552618e-03	-3.17172835e-04	1.27855338e-03	9.65886658e-03
99              	2.91901654e-02	-2.88000630e-03	1.13549231e-02	-1.76059789e-08	-4.34939305e-03	-1.11048273e-03	1.45950651e-02	1.45951003e-02	-2.55048587e-03	-3.29520423e-04	1.32806848e-03	1.00268546e-02
100             	2.92739338e-02	-2.98864641e-03	1.17772187e-02	-1.87829699e-08	-4.51041482e-03	-1.15228616e-03	1.46369481e-02	1.46369857e-02	-2.64660937e-03	-3.42037044e-04	1.37819452e-03	1.03990242e-02
101             	2.93668382e-02	-3.09864665e-03	1.22028541e-02	-2.00728013e-08	-4.67263678e-03	-1.19460063e-03	1.46833990e-02	1.46834392e-02	-2.74392396e-03	-3.54722693e-04	1.42879027e-03	1.07740638e-02
102             	2.94695011e-02	-3.20960276e-03	1.26298858e-02	-2.14888503e-08	-4.83529850e-03	-1.23726816e-03	1.47347291e-02	1.47347720e-02	-2.84206954e-03	-3.67533225e-04	1.47964439e-03	1.11502414e-02
103             	2.95818098e-02	-3.32072915e-03	1.30563630e-02	-2.29953162e-08	-4.99765391e-03	-1.27997875e-03	1.47908819e-02	1.47909279e-02	-2.94034333e-03	-3.80385825e-04	1.53052761e-03	1.15258354e-02
104             	2.97011155e-02	-3.43136239e-03	1.34806724e-02	-2.45470607e-08	-5.15909248e-03	-1.32247424e-03	1.48505332e-02	1.48505823e-02	-3.03815544e-03	-3.93206951e-04	1.58124370e-03	1.18994287e-02
105             	2.98263463e-02	-3.54155360e-03	1.39011411e-02	-2.62088344e-08	-5.31895867e-03	-1.36476717e-03	1.49131469e-02	1.49131994e-02	-3.13554397e-03	-4.06009634e-04	1.63161187e-03	1.22695292e-02
106             	2.99579395e-02	-3.65196613e-03	1.43158227e-02	-2.80360433e-08	-5.47648201e-03	-1.40711109e-03	1.49789417e-02	1.49789978e-02	-3.23309416e-03	-4.18871971e-04	1.68142936e-03	1.26343934e-02
107             	3.00992908e-02	-3.76163667e-03	1.47216821e-02	-3.00456188e-08	-5.63047745e-03	-1.44913636e-03	1.50496154e-02	1.50496754e-02	-3.32995470e-03	-4.31681975e-04	1.73036358e-03	1.29913185e-02
108             	3.02497193e-02	-3.86965272e-03	1.51159683e-02	-3.22105054e-08	-5.77988020e-03	-1.49047944e-03	1.51248274e-02	1.51248918e-02	-3.42530580e-03	-4.44346917e-04	1.77810394e-03	1.33378643e-02
109             	3.04080954e-02	-3.97552086e-03	1.54959856e-02	-3.45378910e-08	-5.92366547e-03	-1.53093583e-03	1.52040131e-02	1.52040822e-02	-3.51869626e-03	-4.56824602e-04	1.82432733e-03	1.36716583e-02
110             	3.05757606e-02	-4.07871027e-03	1.58577354e-02	-3.69959853e-08	-6.06031910e-03	-1.57030078e-03	1.52878433e-02	1.52879173e-02	-3.60965592e-03	-4.69054353e-04	1.86854858e-03	1.39891868e-02
111             	3.07516632e-02	-4.17872555e-03	1.61975798e-02	-3.96867379e-08	-6.18844243e-03	-1.60838409e-03	1.53757919e-02	1.53758713e-02	-3.69774686e-03	-4.80978685e-04	1.91034746e-03	1.42872323e-02
112             	3.09366777e-02	-4.27374533e-03	1.65117670e-02	-4.26488973e-08	-6.30658201e-03	-1.64449195e-03	1.54682962e-02	1.54683815e-02	-3.78136462e-03	-4.92380710e-04	1.94930150e-03	1.45624655e-02
113             	3.11289792e-02	-4.36296094e-03	1.67976200e-02	-4.58390027e-08	-6.41369097e-03	-1.67830857e-03	1.55644438e-02	1.55645355e-02	-3.85978904e-03	-5.03171897e-04	1.98511905e-03	1.48125010e-02
114             	3.13288577e-02	-4.44626347e-03	1.70508528e-02	-4.93242872e-08	-6.50812750e-03	-1.70977883e-03	1.56643795e-02	1.56644782e-02	-3.93291057e-03	-5.13352901e-04	2.01729890e-03	1.50335539e-02
115             	3.15373795e-02	-4.52289615e-03	1.72668808e-02	-5.31179116e-08	-6.58815214e-03	-1.73860367e-03	1.57686366e-02	1.57687428e-02	-4.00005174e-03	-5.22844402e-04	2.04528826e-03	1.52215925e-02
116             	3.17533993e-02	-4.59159724e-03	1.74417260e-02	-5.71236583e-08	-6.65223445e-03	-1.76429699e-03	1.58766425e-02	1.58767568e-02	-4.06009561e-03	-5.31501628e-04	2.06862856e-03	1.53730975e-02
117             	3.19703586e-02	-4.65076150e-03	1.75726338e-02	-6.14684408e-08	-6.69933541e-03	-1.78624397e-03	1.59851178e-02	1.59852408e-02	-4.11162472e-03	-5.39136778e-04	2.08698147e-03	1.54856523e-02
118             	3.21820796e-02	-4.69900696e-03	1.76566716e-02	-6.61831766e-08	-6.72834748e-03	-1.80391742e-03	1.60909736e-02	1.60911060e-02	-4.15342089e-03	-5.45586063e-04	2.09998832e-03	1.55566833e-02
119             	3.23809970e-02	-4.73559990e-03	1.76912066e-02	-7.11891137e-08	-6.73828304e-03	-1.81703306e-03	1.61904273e-02	1.61905697e-02	-4.18483301e-03	-5.50766887e-04	2.10732024e-03	1.55838863e-02
120             	3.25658516e-02	-4.75920629e-03	1.76719304e-02	-7.65875723e-08	-6.72751889e-03	-1.82507947e-03	1.62828492e-02	1.62830024e-02	-4.20468262e-03	-5.54523671e-04	2.10844632e-03	1.55634841e-02
121             	3.27372686e-02	-4.76858528e-03	1.75956821e-02	-8.24895916e-08	-6.69484899e-03	-1.82758921e-03	1.63685518e-02	1.63687168e-02	-4.21188185e-03	-5.56703426e-04	2.10299206e-03	1.54926900e-02
122             	3.28942665e-02	-4.76327735e-03	1.74603927e-02	-8.88992434e-08	-6.63950903e-03	-1.82439261e-03	1.64470444e-02	1.64472222e-02	-4.20603129e-03	-5.57246067e-04	2.09068733e-03	1.53697054e-02
123             	3.30316885e-02	-4.74327667e-03	1.72657924e-02	-9.57813634e-08	-6.56142139e-03	-1.81549989e-03	1.65157484e-02	1.65159400e-02	-4.18713822e-03	-5.56138443e-04	2.07147483e-03	1.51943176e-02
124             	3.31460190e-02	-4.70903339e-03	1.70111602e-02	-1.03142490e-07	-6.46035143e-03	-1.80109538e-03	1.65729064e-02	1.65731126e-02	-4.15561208e-03	-5.53421312e-04	2.04522867e-03	1.49659315e-02
125             	3.32372487e-02	-4.66054054e-03	1.66949356e-02	-1.11032932e-07	-6.33576314e-03	-1.78118953e-03	1.66185133e-02	1.66187354e-02	-4.11145979e-03	-5.49080741e-04	2.01170463e-03	1.46832309e-02
126             	3.33073625e-02	-4.59715000e-03	1.63152044e-02	-1.19237722e-07	-6.18700553e-03	-1.75556313e-03	1.66535620e-02	1.66538005e-02	-4.05413813e-03	-5.43011866e-04	1.97059667e-03	1.43446077e-02
127             	3.33558956e-02	-4.51773915e-03	1.58696582e-02	-1.27697411e-07	-6.01326995e-03	-1.72382666e-03	1.66778201e-02	1.66780755e-02	-3.98269624e-03	-5.35042913e-04	1.92155914e-03	1.39480990e-02
128             	3.33842868e-02	-4.42127694e-03	1.53575879e-02	-1.36292431e-07	-5.81437426e-03	-1.68561324e-03	1.66920071e-02	1.66922797e-02	-3.89625171e-03	-5.25025226e-04	1.86441967e-03	1.34931682e-02
129             	3.33926501e-02	-4.30792322e-03	1.47796468e-02	-1.44882404e-07	-5.59066688e-03	-1.64101171e-03	1.66961802e-02	1.66964699e-02	-3.79497332e-03	-5.12949903e-04	1.79915651e-03	1.29804903e-02
130             	3.33762517e-02	-4.17870392e-03	1.41389956e-02	-1.53307138e-07	-5.34346441e-03	-1.59043806e-03	1.66879726e-02	1.66882792e-02	-3.67979002e-03	-4.98913906e-04	1.72603339e-03	1.24129622e-02
131             	3.33283449e-02	-4.03514636e-03	1.34419605e-02	-1.61453414e-07	-5.07526621e-03	-1.53449896e-03	1.66640110e-02	1.66643339e-02	-3.55207214e-03	-4.83074224e-04	1.64571405e-03	1.17962465e-02
132             	3.32428974e-02	-3.87856438e-03	1.26942521e-02	-1.69386638e-07	-4.78836013e-03	-1.47372804e-03	1.66212793e-02	1.66216181e-02	-3.41301023e-03	-4.65554152e-04	1.55876593e-03	1.11354862e-02
133             	3.31245731e-02	-3.70914959e-03	1.19019139e-02	-1.77015981e-07	-4.48513435e-03	-1.40823200e-03	1.65621095e-02	1.65624636e-02	-3.26280680e-03	-4.46342791e-04	1.46582259e-03	1.04360913e-02
134             	3.29761875e-02	-3.52698159e-03	1.10740605e-02	-1.84193437e-07	-4.16914716e-03	-1.33806298e-03	1.64879096e-02	1.64882779e-02	-3.10155378e-03	-4.25427815e-04	1.36788310e-03	9.70617742e-03
135             	3.28022501e-02	-3.33527416e-03	1.02189023e-02	-1.90971697e-07	-3.84359087e-03	-1.26446340e-03	1.64009341e-02	1.64013160e-02	-2.93210048e-03	-4.03173682e-04	1.26586025e-03	8.95304200e-03
136             	3.26157240e-02	-3.13512460e-03	9.34047024e-03	-1.97333056e-07	-3.51009510e-03	-1.18788192e-03	1.63076647e-02	1.63080594e-02	-2.75544422e-03	-3.79680374e-04	1.16014002e-03	8.18033022e-03
137             	3.24210711e-02	-2.92916663e-03	8.44871595e-03	-2.03295679e-07	-3.17248587e-03	-1.10932477e-03	1.62103323e-02	1.62107388e-02	-2.57390809e-03	-3.55258543e-04	1.05187210e-03	7.39684385e-03
138             	3.22192272e-02	-2.72052920e-03	7.55427812e-03	-2.08932399e-07	-2.83480985e-03	-1.03000024e-03	1.61094047e-02	1.61098225e-02	-2.39026484e-03	-3.30264358e-04	9.42329212e-04	6.61194891e-03
139             	3.20079981e-02	-2.51288898e-03	6.67036456e-03	-2.14143444e-07	-2.50206362e-03	-9.51312874e-04	1.60037849e-02	1.60042132e-02	-2.20775737e-03	-3.05131618e-04	8.33118665e-04	5.83724590e-03
140             	3.17844952e-02	-2.30969784e-03	5.81058765e-03	-2.18906277e-07	-2.17938246e-03	-8.74562209e-04	1.58920287e-02	1.58924665e-02	-2.02941113e-03	-2.80286712e-04	7.25911368e-04	5.08467628e-03
141             	3.15432855e-02	-2.11249688e-03	4.99117103e-03	-2.23239623e-07	-1.87285403e-03	-8.00306765e-04	1.57714195e-02	1.57718660e-02	-1.85655521e-03	-2.55941677e-04	6.22731486e-04	4.36843954e-03
142             	3.12907551e-02	-1.92270203e-03	4.22290751e-03	-2.27131568e-07	-1.58651039e-03	-7.29061671e-04	1.56451504e-02	1.56456047e-02	-1.69041269e-03	-2.32289344e-04	5.24943364e-04	3.69796415e-03
143             	3.10366631e-02	-1.74199351e-03	3.51146838e-03	-2.30357084e-07	-1.32241532e-03	-6.61441518e-04	1.55181012e-02	1.55185619e-02	-1.53243827e-03	-2.09555237e-04	4.33318868e-04	3.07814951e-03