# Force coefficients
# dragDir       : (1.00000000e+00 0.00000000e+00 0.00000000e+00)
# sideDir       : (0.00000000e+00 0.00000000e+00 -1.00000000e+00)
# liftDir       : (0.00000000e+00 1.00000000e+00 0.00000000e+00)
# rollAxis      : (1.00000000e+00 0.00000000e+00 0.00000000e+00)
# pitchAxis     : (0.00000000e+00 0.00000000e+00 -1.00000000e+00)
# yawAxis       : (0.00000000e+00 1.00000000e+00 0.00000000e+00)
# magUInf       : 2.00000000e+00
# lRef          : 1.10719220e+00
# Aref          : 2.14266576e-03
# CofR          : (0.00000000e+00 0.00000000e+00 0.00000000e+00)
#
# Time          	Cd              	Cs              	Cl              	CmRoll          	CmPitch         	CmYaw           	Cd(f)           	Cd(r)           	Cs(f)           	Cs(r)           	Cl(f)           	Cl(r)           
1               	4.30971482e+00	-1.56437296e-02	-3.44963163e-02	-1.55097129e-08	1.68839450e-02	-7.94319183e-03	2.15485739e+00	2.15485743e+00	-1.57650567e-02	1.21327004e-04	-3.64213191e-04	-3.41321031e-02
2               	4.10658894e+00	-1.13818613e-02	-2.71998126e-02	3.35532984e-09	1.44443071e-02	-5.55873253e-03	2.05329447e+00	2.05329447e+00	-1.12496632e-02	-1.32198135e-04	8.44400751e-04	-2.80442134e-02
3               	1.39692677e+00	2.46251121e-04	-2.36315215e-03	3.93417669e-08	2.45963027e-03	4.66982787e-04	6.98463423e-01	6.98463344e-01	5.90108347e-04	-3.43857226e-04	1.27805419e-03	-3.64120634e-03
4               	-1.10555587e+00	8.38872396e-03	1.62652634e-02	4.59713552e-08	-7.63843391e-03	4.49401407e-03	-5.52777888e-01	-5.52777980e-01	8.68837605e-03	-2.99652086e-04	4.94197767e-04	1.57710656e-02
5               	-1.76211733e+00	8.33617035e-03	1.76789129e-02	2.50642529e-08	-9.30533573e-03	4.10737323e-03	-8.81058642e-01	-8.81058692e-01	8.27545840e-03	6.07119481e-05	-4.65879253e-04	1.81447922e-02
6               	-7.22301104e-01	2.35053688e-03	6.73246940e-03	1.57668725e-09	-4.11782298e-03	8.45886684e-04	-3.61150550e-01	-3.61150553e-01	2.02115512e-03	3.29381753e-04	-7.51588274e-04	7.48405768e-03
7               	7.65215859e-01	-3.45548456e-03	-5.72595050e-03	-2.54057942e-09	2.47521638e-03	-2.15789104e-03	3.82607927e-01	3.82607932e-01	-3.88563332e-03	4.30148761e-04	-3.87758868e-04	-5.33819163e-03
8               	1.53385783e+00	-4.96124315e-03	-1.01939019e-02	1.64320543e-08	5.17047303e-03	-2.73626550e-03	7.66928931e-01	7.66928899e-01	-5.21688707e-03	2.55643923e-04	7.35220659e-05	-1.02674240e-02
9               	1.30428373e+00	-2.06169511e-03	-5.74298672e-03	4.83665836e-08	3.16318177e-03	-1.08437822e-03	6.52141913e-01	6.52141817e-01	-2.11522577e-03	5.35306603e-05	2.91688409e-04	-6.03467513e-03
10              	5.80437324e-01	1.74163558e-03	1.53035881e-03	7.24599078e-08	-6.69870237e-04	9.43408034e-04	2.90218734e-01	2.90218590e-01	1.81422582e-03	-7.25902442e-05	9.53091695e-05	1.43504964e-03
11              	2.17453331e-02	3.18291803e-03	5.73762361e-03	6.63986807e-08	-3.03939431e-03	1.72786969e-03	1.08727330e-02	1.08726002e-02	3.31932871e-03	-1.36410675e-04	-1.70582505e-04	5.90820612e-03
12              	-5.36234502e-02	1.95936153e-03	4.91541094e-03	3.96461147e-08	-2.71410980e-03	1.06420991e-03	-2.68116855e-02	-2.68117648e-02	2.04389067e-03	-8.45291391e-05	-2.56404332e-04	5.17181527e-03
13              	2.41020180e-01	-3.08591894e-04	1.27490430e-03	9.91863969e-09	-7.76887914e-04	-1.50049419e-04	1.20510100e-01	1.20510080e-01	-3.04345366e-04	-4.24652818e-06	-1.39435763e-04	1.41434007e-03
14              	5.82475225e-01	-1.64910055e-03	-1.78245717e-03	-4.02715763e-09	9.07429430e-04	-9.11974898e-04	2.91237608e-01	2.91237616e-01	-1.73652517e-03	8.74246220e-05	1.62008438e-05	-1.79865802e-03
15              	7.29165789e-01	-1.32322499e-03	-2.33191779e-03	2.73696586e-09	1.23632230e-03	-8.09995517e-04	3.64582897e-01	3.64582892e-01	-1.47160801e-03	1.48383021e-04	7.03634078e-05	-2.40228119e-03
16              	6.54121390e-01	-3.48729095e-05	-9.13007016e-04	2.41570512e-08	4.34238054e-04	-1.61628348e-04	3.27060719e-01	3.27060671e-01	-1.79064802e-04	1.44191893e-04	-2.22654544e-05	-8.90741562e-04
17              	4.88515788e-01	9.04547027e-04	7.77628442e-04	4.50562570e-08	-5.70064186e-04	3.55361093e-04	2.44257939e-01	2.44257849e-01	8.07634607e-04	9.69124199e-05	-1.81249965e-04	9.58878407e-04
18              	3.75897890e-01	8.80659761e-04	1.47108556e-03	5.66596101e-08	-9.72222817e-04	4.16878800e-04	1.87949001e-01	1.87948888e-01	8.57208680e-04	2.34510809e-05	-2.36680037e-04	1.70776560e-03
19              	3.73316598e-01	1.45824991e-04	1.09705742e-03	5.49993969e-08	-6.52557302e-04	1.22604852e-04	1.86658354e-01	1.86658244e-01	1.95517348e-04	-4.96923563e-05	-1.04028593e-04	1.20108601e-03
20              	4.44010130e-01	-5.79437231e-04	2.92958820e-04	4.48668545e-08	-9.52138031e-05	-2.04790408e-04	2.22005110e-01	2.22005020e-01	-4.94509024e-04	-8.49282070e-05	5.12656068e-05	2.41693213e-04
21              	5.15954232e-01	-7.84935732e-04	-1.78805110e-04	3.44867058e-08	2.51883872e-04	-3.26081143e-04	2.57977151e-01	2.57977082e-01	-7.18549009e-04	-6.63867226e-05	1.62481318e-04	-3.41286427e-04
22              	5.42114939e-01	-4.44998719e-04	-9.76806096e-05	2.81474256e-08	1.86293615e-04	-2.03187338e-04	2.71057498e-01	2.71057442e-01	-4.25686697e-04	-1.93120221e-05	1.37453310e-04	-2.35133919e-04
23              	5.22270646e-01	1.71393069e-05	2.20555796e-04	2.71048656e-08	-9.69274749e-05	-9.81322251e-06	2.61135350e-01	2.61135296e-01	-1.24356905e-06	1.83828760e-05	1.33504228e-05	2.07205373e-04
24              	4.87036217e-01	2.68193309e-04	4.76870031e-04	2.87324818e-08	-3.37410030e-04	8.75709315e-05	2.43518137e-01	2.43518080e-01	2.21667586e-04	4.65257231e-05	-9.89750145e-05	5.75845045e-04
25              	4.65566951e-01	1.51563306e-04	4.35220860e-04	3.04429516e-08	-3.20473013e-04	4.76661586e-05	2.32783506e-01	2.32783445e-01	1.23447811e-04	2.81154942e-05	-1.02862583e-04	5.38083443e-04
26              	4.67025495e-01	-1.41827635e-04	1.73723621e-04	2.97068137e-08	-1.16448027e-04	-6.12219722e-05	2.33512777e-01	2.33512718e-01	-1.32135790e-04	-9.69184546e-06	-2.95862168e-05	2.03309837e-04
27              	4.82074459e-01	-3.91039584e-04	-7.72073745e-05	2.75817236e-08	8.81094117e-05	-1.47229838e-04	2.41037257e-01	2.41037202e-01	-3.42749630e-04	-4.82899540e-05	4.95057245e-05	-1.26713099e-04
28              	4.95439468e-01	-4.35193534e-04	-1.05580304e-04	2.44800989e-08	1.54976447e-04	-1.63225760e-04	2.47719758e-01	2.47719709e-01	-3.80822527e-04	-5.43710072e-05	1.02186295e-04	-2.07766599e-04
29              	4.98432878e-01	-2.85861559e-04	4.86674599e-06	2.24983984e-08	7.40479390e-05	-1.08007225e-04	2.49216462e-01	2.49216417e-01	-2.50938005e-04	-3.49235545e-05	7.64813120e-05	-7.16145660e-05
30              	4.92340862e-01	-7.62597715e-05	1.31854830e-04	2.17442308e-08	-5.95146249e-05	-3.59848102e-05	2.46170453e-01	2.46170409e-01	-7.41146960e-05	-2.14507558e-06	6.41279028e-06	1.25442040e-04
31              	4.83888913e-01	4.50492207e-05	1.66839376e-04	2.33062838e-08	-1.29963824e-04	-2.62902246e-06	2.41944480e-01	2.41944433e-01	1.98955879e-05	2.51536328e-05	-4.65441359e-05	2.13383512e-04
32              	4.78762146e-01	2.79676908e-05	7.52321498e-05	2.57284654e-08	-9.76147948e-05	-2.01467346e-05	2.39381099e-01	2.39381047e-01	-6.16288922e-06	3.41305801e-05	-5.99987199e-05	1.35230870e-04
33              	4.78279344e-01	-9.98927341e-05	-5.57449706e-05	2.71864986e-08	3.64031975e-06	-6.05229256e-05	2.39139699e-01	2.39139645e-01	-1.10469293e-04	1.05765585e-05	-2.42321655e-05	-3.15128050e-05
34              	4.80102924e-01	-2.03081006e-04	-1.66412116e-04	2.76328745e-08	8.02861722e-05	-9.17884721e-05	2.40051490e-01	2.40051434e-01	-1.93328975e-04	-9.75203078e-06	-2.91988576e-06	-1.63492230e-04
35              	4.81056667e-01	-2.30939122e-04	-1.82526233e-04	2.74438622e-08	9.57509168e-05	-9.52450686e-05	2.40528361e-01	2.40528306e-01	-2.10714630e-04	-2.02244926e-05	4.48780040e-06	-1.87014033e-04
36              	4.79586834e-01	-1.78100834e-04	-1.29340679e-04	2.71754911e-08	5.75681965e-05	-8.04923953e-05	2.39793444e-01	2.39793390e-01	-1.69542812e-04	-8.55802146e-06	-7.10214297e-06	-1.22238536e-04
37              	4.76252926e-01	-9.38502722e-05	-6.92573337e-05	2.72664130e-08	6.74724348e-06	-6.30896185e-05	2.38126490e-01	2.38126436e-01	-1.10014755e-04	1.61644824e-05	-2.78814233e-05	-4.13759103e-05
38              	4.72592223e-01	-3.96193904e-05	-3.79544072e-05	2.88525336e-08	-1.89446712e-05	-5.19711879e-05	2.36296140e-01	2.36296083e-01	-7.17808831e-05	3.21614927e-05	-3.79218748e-05	-3.25323894e-08
39              	4.69752715e-01	-3.37974878e-05	-5.40863245e-05	3.08094588e-08	-9.58897319e-06	-5.04142313e-05	2.34876388e-01	2.34876327e-01	-6.73129753e-05	3.35154874e-05	-3.66321354e-05	-1.74541890e-05
40              	4.67883132e-01	-6.35519359e-05	-1.03298354e-04	3.21315415e-08	1.88258414e-05	-5.39670785e-05	2.33941598e-01	2.33941534e-01	-8.57430465e-05	2.21911106e-05	-3.28233354e-05	-7.04750182e-05
41              	4.66399147e-01	-9.74784298e-05	-1.42231810e-04	3.27140653e-08	4.59369620e-05	-5.80725540e-05	2.33199606e-01	2.33199541e-01	-1.06811769e-04	9.33333910e-06	-2.51789430e-05	-1.17052867e-04
42              	4.64623683e-01	-1.08442861e-04	-1.48488538e-04	3.24835361e-08	5.62827207e-05	-6.10602764e-05	2.32311874e-01	2.32311809e-01	-1.15281707e-04	6.83884570e-06	-1.79615484e-05	-1.30526990e-04
43              	4.62264833e-01	-1.00117458e-04	-1.32338528e-04	3.21086794e-08	4.60386735e-05	-6.04687945e-05	2.31132449e-01	2.31132384e-01	-1.10527524e-04	1.04100653e-05	-2.01305904e-05	-1.12207937e-04
44              	4.59483304e-01	-8.21573122e-05	-1.15983502e-04	3.20325580e-08	2.61477115e-05	-5.78425298e-05	2.29741684e-01	2.29741620e-01	-9.89211859e-05	1.67638737e-05	-3.18440395e-05	-8.41394625e-05
45              	4.56639551e-01	-7.01072034e-05	-1.03002326e-04	3.19315362e-08	1.35276880e-05	-5.40807250e-05	2.28319808e-01	2.28319744e-01	-8.91343267e-05	1.90271233e-05	-3.79734748e-05	-6.50288509e-05
46              	4.53995929e-01	-6.79609588e-05	-9.38387183e-05	3.19718553e-08	1.44929417e-05	-5.14346522e-05	2.26997997e-01	2.26997933e-01	-8.54151316e-05	1.74541728e-05	-3.24264174e-05	-6.14123009e-05
47              	4.51586394e-01	-7.51804991e-05	-9.58374085e-05	3.23267671e-08	2.20337054e-05	-4.83548302e-05	2.25793229e-01	2.25793165e-01	-8.59450798e-05	1.07645806e-05	-2.58849989e-05	-6.99524096e-05
48              	4.49277069e-01	-8.11077671e-05	-1.05255775e-04	3.26395152e-08	2.89258148e-05	-4.57951091e-05	2.24638567e-01	2.24638502e-01	-8.63489926e-05	5.24122556e-06	-2.37020728e-05	-8.15537023e-05
49              	4.46913768e-01	-7.93030725e-05	-1.14747912e-04	3.29533240e-08	3.01633720e-05	-4.44037385e-05	2.23456917e-01	2.23456851e-01	-8.40552747e-05	4.75220221e-06	-2.72105842e-05	-8.75373282e-05
50              	4.44430690e-01	-7.35327012e-05	-1.19126246e-04	3.31492943e-08	2.61647069e-05	-4.37082560e-05	2.22215378e-01	2.22215312e-01	-8.04746066e-05	6.94190542e-06	-3.33984162e-05	-8.57278300e-05
51              	4.41864548e-01	-6.86215145e-05	-1.20155874e-04	3.31256746e-08	1.95933557e-05	-4.30816516e-05	2.20932307e-01	2.20932241e-01	-7.73924089e-05	8.77089436e-06	-4.04845811e-05	-7.96712924e-05
52              	4.39296587e-01	-6.74661673e-05	-1.16840574e-04	3.29926943e-08	1.56459964e-05	-4.24447996e-05	2.19648327e-01	2.19648261e-01	-7.61778832e-05	8.71171597e-06	-4.27742904e-05	-7.40662832e-05
53              	4.36788445e-01	-6.88591264e-05	-1.13501529e-04	3.30458901e-08	1.55189834e-05	-4.18125179e-05	2.18394256e-01	2.18394190e-01	-7.62420811e-05	7.38295476e-06	-4.12317812e-05	-7.22697480e-05
54              	4.34352502e-01	-7.00428352e-05	-1.13670595e-04	3.34958656e-08	1.72385472e-05	-4.12987243e-05	2.17176285e-01	2.17176218e-01	-7.63201419e-05	6.27730672e-06	-3.95967502e-05	-7.40738445e-05
55              	4.31963287e-01	-7.00560582e-05	-1.17717673e-04	3.41490098e-08	1.83461049e-05	-4.03935749e-05	2.15981678e-01	2.15981609e-01	-7.54216040e-05	5.36554581e-06	-4.05127315e-05	-7.72049413e-05
56              	4.29589062e-01	-6.78316166e-05	-1.21397178e-04	3.48068417e-08	1.86717938e-05	-3.92220933e-05	2.14794566e-01	2.14794496e-01	-7.31379016e-05	5.30628504e-06	-4.20267952e-05	-7.93703829e-05
57              	4.27214932e-01	-6.42646086e-05	-1.22923144e-04	3.52725567e-08	1.83704180e-05	-3.79290776e-05	2.13607501e-01	2.13607431e-01	-7.00613819e-05	5.79677329e-06	-4.30911542e-05	-7.98319902e-05
58              	4.24849116e-01	-6.05560926e-05	-1.21737697e-04	3.55483223e-08	1.84634585e-05	-3.67684739e-05	2.12424594e-01	2.12424523e-01	-6.70465202e-05	6.49042762e-06	-4.24053902e-05	-7.93323072e-05
59              	4.22510114e-01	-5.81783363e-05	-1.19080309e-04	3.57023874e-08	1.97373921e-05	-3.58015827e-05	2.11255093e-01	2.11255021e-01	-6.48907509e-05	6.71241458e-06	-3.98027626e-05	-7.92775468e-05
60              	4.20212626e-01	-5.73077385e-05	-1.17020635e-04	3.57982215e-08	2.19055136e-05	-3.50506749e-05	2.10106349e-01	2.10106277e-01	-6.37045442e-05	6.39680571e-06	-3.66048039e-05	-8.04158311e-05
61              	4.17960320e-01	-5.68379973e-05	-1.16643923e-04	3.60437118e-08	2.41434494e-05	-3.45933833e-05	2.08980196e-01	2.08980124e-01	-6.30123820e-05	6.17438468e-06	-3.41785123e-05	-8.24654111e-05
62              	4.15748419e-01	-5.54187362e-05	-1.16783198e-04	3.64251605e-08	2.57642727e-05	-3.45100337e-05	2.07874246e-01	2.07874173e-01	-6.22194018e-05	6.80066560e-06	-3.26273263e-05	-8.41558718e-05
63              	4.13570950e-01	-5.41554705e-05	-1.16191758e-04	3.69231164e-08	2.66601419e-05	-3.43160614e-05	2.06785512e-01	2.06785438e-01	-6.13937966e-05	7.23832613e-06	-3.14357372e-05	-8.47560210e-05
64              	4.11425774e-01	-5.34303732e-05	-1.14583824e-04	3.74546367e-08	2.71879983e-05	-3.38714656e-05	2.05712925e-01	2.05712850e-01	-6.05866522e-05	7.15627901e-06	-3.01039136e-05	-8.44799102e-05
65              	4.09315486e-01	-5.25572263e-05	-1.12242405e-04	3.78804690e-08	2.79837801e-05	-3.33310483e-05	2.04657781e-01	2.04657705e-01	-5.96096615e-05	7.05243520e-06	-2.81374223e-05	-8.41049826e-05
66              	4.07245500e-01	-5.11702229e-05	-1.10972524e-04	3.81242585e-08	2.90667796e-05	-3.28111813e-05	2.03622788e-01	2.03622712e-01	-5.83962927e-05	7.22606985e-06	-2.64194824e-05	-8.45530416e-05
67              	4.05220508e-01	-4.93179049e-05	-1.11041703e-04	3.82564880e-08	3.01935969e-05	-3.24513655e-05	2.02610292e-01	2.02610216e-01	-5.71103180e-05	7.79241310e-06	-2.53272548e-05	-8.57144486e-05
68              	4.03242449e-01	-4.74426365e-05	-1.12386818e-04	3.83518218e-08	3.10386635e-05	-3.22893033e-05	2.01621263e-01	2.01621186e-01	-5.60106216e-05	8.56798503e-06	-2.51547456e-05	-8.72320727e-05
69              	4.01310606e-01	-4.57793733e-05	-1.15012324e-04	3.84840020e-08	3.14513836e-05	-3.23395335e-05	2.00655342e-01	2.00655265e-01	-5.52292201e-05	9.44984687e-06	-2.60547786e-05	-8.89575458e-05
70              	3.99423149e-01	-4.44580551e-05	-1.18234891e-04	3.86803555e-08	3.17401876e-05	-3.23230662e-05	1.99711613e-01	1.99711536e-01	-5.45520937e-05	1.00940386e-05	-2.73772579e-05	-9.08576331e-05
71              	3.97578847e-01	-4.34408566e-05	-1.21344775e-04	3.89515339e-08	3.20997554e-05	-3.20492397e-05	1.98789462e-01	1.98789384e-01	-5.37696680e-05	1.03288114e-05	-2.85726322e-05	-9.27721431e-05
72              	3.95777555e-01	-4.24790118e-05	-1.23926434e-04	3.93383074e-08	3.23467699e-05	-3.16196244e-05	1.97888817e-01	1.97888738e-01	-5.28591302e-05	1.03801185e-05	-2.96164468e-05	-9.43099867e-05
73              	3.94020322e-01	-4.11877000e-05	-1.25682271e-04	3.97697061e-08	3.25000792e-05	-3.12923366e-05	1.97010201e-01	1.97010121e-01	-5.18861866e-05	1.06984866e-05	-3.03410563e-05	-9.53412146e-05
74              	3.92308760e-01	-3.95481644e-05	-1.26946223e-04	4.01652279e-08	3.25209497e-05	-3.11764832e-05	1.96154420e-01	1.96154340e-01	-5.09505654e-05	1.14024010e-05	-3.09521619e-05	-9.59940614e-05
75              	3.90644133e-01	-3.79175955e-05	-1.27861841e-04	4.05158399e-08	3.23636634e-05	-3.11560294e-05	1.95322107e-01	1.95322026e-01	-5.01148271e-05	1.21972317e-05	-3.15672570e-05	-9.62945837e-05
76              	3.89027055e-01	-3.64586716e-05	-1.28895894e-04	4.07594347e-08	3.21649812e-05	-3.10693017e-05	1.94513568e-01	1.94513487e-01	-4.92986374e-05	1.28399659e-05	-3.22829657e-05	-9.66129281e-05
77              	3.87457479e-01	-3.51229101e-05	-1.30429523e-04	4.09325351e-08	3.20489350e-05	-3.09056127e-05	1.93728780e-01	1.93728699e-01	-4.84670678e-05	1.33441577e-05	-3.31658267e-05	-9.72636967e-05
78              	3.85934712e-01	-3.35277052e-05	-1.32153746e-04	4.10552652e-08	3.20855039e-05	-3.06911185e-05	1.92967397e-01	1.92967315e-01	-4.74549711e-05	1.39272659e-05	-3.39913691e-05	-9.81623768e-05
79              	3.84457643e-01	-3.16372549e-05	-1.33370167e-04	4.11735371e-08	3.22142126e-05	-3.04464759e-05	1.92228863e-01	1.92228780e-01	-4.62651034e-05	1.46278485e-05	-3.44708709e-05	-9.88992962e-05
80              	3.83025293e-01	-2.99625663e-05	-1.33653702e-04	4.13016245e-08	3.24222738e-05	-3.02161675e-05	1.91512688e-01	1.91512605e-01	-4.51974507e-05	1.52348843e-05	-3.44045773e-05	-9.92491249e-05
81              	3.81636942e-01	-2.90236673e-05	-1.32885657e-04	4.14157006e-08	3.27794123e-05	-2.99945336e-05	1.90818513e-01	1.90818430e-01	-4.45063672e-05	1.54827000e-05	-3.36634162e-05	-9.92222407e-05
82              	3.80292097e-01	-2.86042515e-05	-1.31956202e-04	4.15265790e-08	3.32075194e-05	-2.97817038e-05	1.90146090e-01	1.90146007e-01	-4.40838296e-05	1.54795781e-05	-3.27705817e-05	-9.91856205e-05
83              	3.78990514e-01	-2.82665725e-05	-1.31189397e-04	4.16450255e-08	3.35964993e-05	-2.96341589e-05	1.89495299e-01	1.89495215e-01	-4.37674451e-05	1.55008726e-05	-3.19981992e-05	-9.91911977e-05
84              	3.77732027e-01	-2.76716779e-05	-1.30655422e-04	4.17590214e-08	3.39721526e-05	-2.95060694e-05	1.88866055e-01	1.88865972e-01	-4.33419084e-05	1.56702305e-05	-3.13555586e-05	-9.92998637e-05
85              	3.76516264e-01	-2.67689984e-05	-1.30213995e-04	4.18690108e-08	3.43382474e-05	-2.92915131e-05	1.88258174e-01	1.88258090e-01	-4.26760123e-05	1.59070139e-05	-3.07687502e-05	-9.94452450e-05
86              	3.75342608e-01	-2.58883467e-05	-1.29586781e-04	4.19690413e-08	3.47819044e-05	-2.89090086e-05	1.87671346e-01	1.87671262e-01	-4.18531819e-05	1.59648353e-05	-3.00114861e-05	-9.95752949e-05
87              	3.74210249e-01	-2.51129147e-05	-1.28712844e-04	4.20676445e-08	3.53086392e-05	-2.82870150e-05	1.87105167e-01	1.87105083e-01	-4.08434723e-05	1.57305577e-05	-2.90477827e-05	-9.96650610e-05
88              	3.73118155e-01	-2.45581850e-05	-1.27630890e-04	4.21438025e-08	3.57838740e-05	-2.75793952e-05	1.86559119e-01	1.86559035e-01	-3.98584877e-05	1.53003027e-05	-2.80315709e-05	-9.95993190e-05
89              	3.72065381e-01	-2.42785862e-05	-1.26744050e-04	4.22217104e-08	3.61867573e-05	-2.69688788e-05	1.86032733e-01	1.86032648e-01	-3.91081719e-05	1.48295858e-05	-2.71852679e-05	-9.95587825e-05
90              	3.71050949e-01	-2.41235627e-05	-1.26457397e-04	4.23178901e-08	3.64957616e-05	-2.65772848e-05	1.85525517e-01	1.85525432e-01	-3.86390662e-05	1.45155035e-05	-2.67329369e-05	-9.97244601e-05
91              	3.70073871e-01	-2.39101504e-05	-1.26691769e-04	4.24301941e-08	3.66724244e-05	-2.63249925e-05	1.85036978e-01	1.85036893e-01	-3.82800678e-05	1.43699173e-05	-2.66734600e-05	-1.00018309e-04
92              	3.69133249e-01	-2.37382622e-05	-1.26890896e-04	4.25514751e-08	3.67569407e-05	-2.60356047e-05	1.84566667e-01	1.84566582e-01	-3.79047358e-05	1.41664736e-05	-2.66885075e-05	-1.00202389e-04
93              	3.68228274e-01	-2.35533454e-05	-1.27033814e-04	4.26649662e-08	3.68173263e-05	-2.56013642e-05	1.84114180e-01	1.84114094e-01	-3.73780369e-05	1.38246915e-05	-2.66995808e-05	-1.00334233e-04
94              	3.67358148e-01	-2.32178563e-05	-1.27045130e-04	4.27834605e-08	3.68890142e-05	-2.50775730e-05	1.83679117e-01	1.83679031e-01	-3.66865011e-05	1.34686448e-05	-2.66335510e-05	-1.00411579e-04
95              	3.66522124e-01	-2.27766819e-05	-1.27117630e-04	4.28858441e-08	3.69517987e-05	-2.45205768e-05	1.83261105e-01	1.83261019e-01	-3.59089178e-05	1.31322359e-05	-2.66070162e-05	-1.00510614e-04
96              	3.65719437e-01	-2.22383034e-05	-1.27424377e-04	4.29591911e-08	3.69487868e-05	-2.40032749e-05	1.82859761e-01	1.82859675e-01	-3.51224266e-05	1.28841232e-05	-2.67634018e-05	-1.00660975e-04
97              	3.64949297e-01	-2.16196514e-05	-1.28131165e-04	4.30331823e-08	3.68722856e-05	-2.34990066e-05	1.82474691e-01	1.82474605e-01	-3.43088323e-05	1.26891809e-05	-2.71932967e-05	-1.00937868e-04
98              	3.64210817e-01	-2.08859566e-05	-1.29052916e-04	4.31090834e-08	3.68293599e-05	-2.29417967e-05	1.82105452e-01	1.82105366e-01	-3.33847750e-05	1.24988184e-05	-2.76970980e-05	-1.01355818e-04
99              	3.63503031e-01	-2.00585568e-05	-1.29917766e-04	4.31938717e-08	3.68412984e-05	-2.23377811e-05	1.81751559e-01	1.81751472e-01	-3.23670595e-05	1.23085027e-05	-2.81175845e-05	-1.01800181e-04
100             	3.62825360e-01	-1.91092618e-05	-1.30472423e-04	4.32640372e-08	3.68444729e-05	-2.17520034e-05	1.81412723e-01	1.81412637e-01	-3.13066343e-05	1.21973724e-05	-2.83917388e-05	-1.02080685e-04
101             	3.62177355e-01	-1.81069550e-05	-1.30657673e-04	4.33333583e-08	3.68463187e-05	-2.12185050e-05	1.81088721e-01	1.81088634e-01	-3.02719825e-05	1.21650275e-05	-2.84825179e-05	-1.02175155e-04
102             	3.61558154e-01	-1.71107389e-05	-1.30445334e-04	4.34041818e-08	3.68239292e-05	-2.07093555e-05	1.80779120e-01	1.80779034e-01	-2.92647250e-05	1.21539861e-05	-2.83987379e-05	-1.02046596e-04
103             	3.60966902e-01	-1.61092558e-05	-1.30062890e-04	4.34748965e-08	3.67205418e-05	-2.01878537e-05	1.80483495e-01	1.80483408e-01	-2.82424816e-05	1.21332258e-05	-2.83109033e-05	-1.01751987e-04
104             	3.60402732e-01	-1.50170783e-05	-1.29630638e-04	4.35574908e-08	3.65603336e-05	-1.96440317e-05	1.80201410e-01	1.80201323e-01	-2.71525708e-05	1.21354925e-05	-2.82549856e-05	-1.01375653e-04
105             	3.59864758e-01	-1.38392444e-05	-1.29068070e-04	4.36536486e-08	3.63979491e-05	-1.90670226e-05	1.79932423e-01	1.79932335e-01	-2.59866448e-05	1.21474003e-05	-2.81360858e-05	-1.00931984e-04
106             	3.59352016e-01	-1.25423979e-05	-1.28392669e-04	4.37642395e-08	3.62619020e-05	-1.85135541e-05	1.79676052e-01	1.79675964e-01	-2.47847530e-05	1.22423551e-05	-2.79344324e-05	-1.00458236e-04
107             	3.58863507e-01	-1.11358572e-05	-1.27755648e-04	4.38751025e-08	3.62182590e-05	-1.79811250e-05	1.79431797e-01	1.79431710e-01	-2.35490536e-05	1.24131964e-05	-2.76595649e-05	-1.00096083e-04
108             	3.58398226e-01	-9.74760559e-06	-1.27153282e-04	4.39889555e-08	3.62538617e-05	-1.74142145e-05	1.79199157e-01	1.79199069e-01	-2.22880173e-05	1.25404117e-05	-2.73227791e-05	-9.98305025e-05
109             	3.57955206e-01	-8.31357417e-06	-1.26535086e-04	4.41021694e-08	3.62556942e-05	-1.67990103e-05	1.78977647e-01	1.78977559e-01	-2.09557974e-05	1.26422232e-05	-2.70118489e-05	-9.95232373e-05
110             	3.57533512e-01	-6.77340952e-06	-1.25686431e-04	4.42120945e-08	3.60936299e-05	-1.61652305e-05	1.78766800e-01	1.78766712e-01	-1.95519353e-05	1.27785258e-05	-2.67495858e-05	-9.89368456e-05
111             	3.57132215e-01	-5.22485598e-06	-1.24277020e-04	4.43090899e-08	3.57640886e-05	-1.55071719e-05	1.78566152e-01	1.78566063e-01	-1.81195999e-05	1.28947439e-05	-2.63744215e-05	-9.79025986e-05
112             	3.56750406e-01	-3.60290163e-06	-1.22531857e-04	4.44161086e-08	3.53812662e-05	-1.48534729e-05	1.78375247e-01	1.78375158e-01	-1.66549237e-05	1.30520221e-05	-2.58846625e-05	-9.66471948e-05
113             	3.56387168e-01	-2.01752991e-06	-1.20921162e-04	4.45239430e-08	3.50194359e-05	-1.42631640e-05	1.78193629e-01	1.78193540e-01	-1.52719290e-05	1.32543991e-05	-2.54411453e-05	-9.54800171e-05
114             	3.56041575e-01	-6.35882797e-07	-1.19652734e-04	4.46187770e-08	3.47695824e-05	-1.37133023e-05	1.78020832e-01	1.78020743e-01	-1.40312437e-05	1.33953609e-05	-2.50567844e-05	-9.45959493e-05
115             	3.55712729e-01	6.54084579e-07	-1.18825810e-04	4.47071126e-08	3.46198341e-05	-1.31450924e-05	1.77856409e-01	1.77856320e-01	-1.28180501e-05	1.34721347e-05	-2.47930710e-05	-9.40327391e-05
116             	3.55399749e-01	2.11237665e-06	-1.18282073e-04	4.47949273e-08	3.44385408e-05	-1.25449141e-05	1.77699919e-01	1.77699830e-01	-1.14887258e-05	1.36011024e-05	-2.47024956e-05	-9.35795773e-05
117             	3.55101763e-01	3.67163209e-06	-1.17542346e-04	4.48930631e-08	3.41283209e-05	-1.19136028e-05	1.77550926e-01	1.77550837e-01	-1.00777867e-05	1.37494188e-05	-2.46428523e-05	-9.28994942e-05
118             	3.54817911e-01	5.27603282e-06	-1.16420184e-04	4.49955194e-08	3.36419290e-05	-1.12933123e-05	1.77409000e-01	1.77408910e-01	-8.65529590e-06	1.39313287e-05	-2.45681630e-05	-9.18520209e-05
119             	3.54547349e-01	6.90153443e-06	-1.15079489e-04	4.50919829e-08	3.30182098e-05	-1.06882686e-05	1.77273720e-01	1.77273629e-01	-7.23750143e-06	1.41390359e-05	-2.45215346e-05	-9.05579543e-05
120             	3.54289243e-01	8.34855610e-06	-1.13748769e-04	4.51885785e-08	3.23464085e-05	-1.01385176e-05	1.77144667e-01	1.77144576e-01	-5.96423959e-06	1.43127957e-05	-2.45279762e-05	-8.92207932e-05
121             	3.54042852e-01	9.71444314e-06	-1.12569194e-04	4.52770676e-08	3.17299455e-05	-9.63650758e-06	1.77021471e-01	1.77021381e-01	-4.77928601e-06	1.44937292e-05	-2.45546515e-05	-8.80145425e-05
122             	3.53807448e-01	1.09763165e-05	-1.11788572e-04	4.53761586e-08	3.12345126e-05	-9.16862472e-06	1.76903770e-01	1.76903679e-01	-3.68046647e-06	1.46567830e-05	-2.46597735e-05	-8.71287986e-05
123             	3.53582347e-01	1.22415547e-05	-1.11121022e-04	4.54775919e-08	3.07693379e-05	-8.69549076e-06	1.76791219e-01	1.76791128e-01	-2.57471342e-06	1.48162681e-05	-2.47911731e-05	-8.63298489e-05
124             	3.53366885e-01	1.36190253e-05	-1.10313394e-04	4.55726641e-08	3.02007418e-05	-8.17642226e-06	1.76683488e-01	1.76683397e-01	-1.36690963e-06	1.49859349e-05	-2.49559551e-05	-8.53574388e-05
125             	3.53160401e-01	1.50871669e-05	-1.09248740e-04	4.56683005e-08	2.95101413e-05	-7.63205407e-06	1.76580246e-01	1.76580155e-01	-8.84706302e-08	1.51756375e-05	-2.51142288e-05	-8.41345113e-05
126             	3.52962248e-01	1.65672536e-05	-1.08038770e-04	4.57597997e-08	2.87346094e-05	-7.11218815e-06	1.76481170e-01	1.76481078e-01	1.17143862e-06	1.53958149e-05	-2.52847758e-05	-8.27539945e-05
127             	3.52771846e-01	1.80154478e-05	-1.06752259e-04	4.58294034e-08	2.79442023e-05	-6.64543478e-06	1.76385969e-01	1.76385877e-01	2.36228911e-06	1.56531587e-05	-2.54319272e-05	-8.13203317e-05
128             	3.52588699e-01	1.93828101e-05	-1.05656207e-04	4.58922007e-08	2.71763058e-05	-6.20369465e-06	1.76294396e-01	1.76294304e-01	3.48771039e-06	1.58950997e-05	-2.56517976e-05	-8.00044093e-05
129             	3.52412314e-01	2.06398075e-05	-1.04786941e-04	4.59436822e-08	2.64115743e-05	-5.77422402e-06	1.76206203e-01	1.76206111e-01	4.54567970e-06	1.60941277e-05	-2.59818963e-05	-7.88050449e-05
130             	3.52242239e-01	2.18079735e-05	-1.03894631e-04	4.60013995e-08	2.56206553e-05	-5.35892599e-06	1.76121166e-01	1.76121074e-01	5.54506076e-06	1.62629127e-05	-2.63266601e-05	-7.75679706e-05
131             	3.52078026e-01	2.29091771e-05	-1.02912598e-04	4.60588211e-08	2.47827370e-05	-4.96013942e-06	1.76039059e-01	1.76038967e-01	6.49444913e-06	1.64147280e-05	-2.66735621e-05	-7.62390361e-05
132             	3.51919228e-01	2.40400398e-05	-1.01867187e-04	4.61303985e-08	2.38843420e-05	-4.57340371e-06	1.75959660e-01	1.75959568e-01	7.44661618e-06	1.65934236e-05	-2.70492516e-05	-7.48179356e-05
133             	3.51765446e-01	2.51143765e-05	-1.00792335e-04	4.61931763e-08	2.29382927e-05	-4.18867019e-06	1.75882769e-01	1.75882677e-01	8.36851804e-06	1.67458584e-05	-2.74578748e-05	-7.33344602e-05
134             	3.51616335e-01	2.61275277e-05	-9.96623444e-05	4.62518755e-08	2.19659086e-05	-3.81155620e-06	1.75808214e-01	1.75808121e-01	9.25220763e-06	1.68753200e-05	-2.78652636e-05	-7.17970808e-05
135             	3.51471581e-01	2.71158550e-05	-9.85115512e-05	4.63185521e-08	2.09697014e-05	-3.43748888e-06	1.75735837e-01	1.75735744e-01	1.01204386e-05	1.69954164e-05	-2.82860742e-05	-7.02254770e-05
136             	3.51330908e-01	2.80726702e-05	-9.73309614e-05	4.63878248e-08	1.99489774e-05	-3.07401153e-06	1.75665500e-01	1.75665408e-01	1.09623236e-05	1.71103466e-05	-2.87165033e-05	-6.86144581e-05
137             	3.51194038e-01	2.89356585e-05	-9.60735861e-05	4.64502109e-08	1.89147461e-05	-2.71974277e-06	1.75597065e-01	1.75596972e-01	1.17480865e-05	1.71875720e-05	-2.91220469e-05	-6.69515392e-05
138             	3.51060673e-01	2.96614484e-05	-9.47854324e-05	4.65027570e-08	1.78551652e-05	-2.39217018e-06	1.75530383e-01	1.75530290e-01	1.24385540e-05	1.72228944e-05	-2.95375510e-05	-6.52478814e-05
139             	3.50930573e-01	3.03191600e-05	-9.35287703e-05	4.65423729e-08	1.67791385e-05	-2.07782051e-06	1.75465333e-01	1.75465240e-01	1.30817595e-05	1.72374005e-05	-2.99852466e-05	-6.35435237e-05
140             	3.50803526e-01	3.08770162e-05	-9.22810368e-05	4.65730313e-08	1.57197050e-05	-1.78658819e-06	1.75401810e-01	1.75401716e-01	1.36519199e-05	1.72250963e-05	-3.04208134e-05	-6.18602234e-05
141             	3.50679331e-01	3.13747306e-05	-9.10481941e-05	4.65977412e-08	1.47002312e-05	-1.50795928e-06	1.75339712e-01	1.75339619e-01	1.41794060e-05	1.71953246e-05	-3.08238659e-05	-6.02243282e-05
142             	3.50557818e-01	3.18380376e-05	-8.98071752e-05	4.66203862e-08	1.37207549e-05	-1.24229916e-06	1.75278955e-01	1.75278862e-01	1.46767197e-05	1.71613180e-05	-3.11828328e-05	-5.86243425e-05
143             	3.50438793e-01	3.22543408e-05	-8.85045939e-05	4.66463125e-08	1.27523150e-05	-9.83652374e-07	1.75219443e-01	1.75219350e-01	1.51435180e-05	1.71108228e-05	-3.14999820e-05	-5.70046119e-05
144             	3.50322069e-01	3.26211046e-05	-8.71039742e-05	4.66873142e-08	1.17451649e-05	-7.26921430e-07	1.75161081e-01	1.75160988e-01	1.55836309e-05	1.70374737e-05	-3.18068222e-05	-5.52971520e-05