# Force coefficients
# dragDir       : (1.00000000e+00 0.00000000e+00 0.00000000e+00)
# sideDir       : (0.00000000e+00 0.00000000e+00 -1.00000000e+00)
# liftDir       : (0.00000000e+00 1.00000000e+00 0.00000000e+00)
# rollAxis      : (1.00000000e+00 0.00000000e+00 0.00000000e+00)
# pitchAxis     : (0.00000000e+00 0.00000000e+00 -1.00000000e+00)
# yawAxis       : (0.00000000e+00 1.00000000e+00 0.00000000e+00)
# magUInf       : 2.00000000e+00
# lRef          : 1.33000000e+00
# Aref          : 2.86401925e-02
# CofR          : (0.00000000e+00 0.00000000e+00 0.00000000e+00)
#
# Time          	Cd              	Cs              	Cl              	CmRoll          	CmPitch         	CmYaw           	Cd(f)           	Cd(r)           	Cs(f)           	Cs(r)           	Cl(f)           	Cl(r)           
1               	1.33523407e+01	-2.07562298e-04	-1.12504274e-04	-8.80737008e-08	-1.42589066e-04	5.56179510e-05	6.67617024e+00	6.67617042e+00	-4.81631980e-05	-1.59399100e-04	-1.98841203e-04	8.63369290e-05
2               	1.14859979e+01	-3.97436587e-04	2.24370221e-04	-1.20825214e-07	-1.76319156e-05	-1.15334194e-05	5.74299883e+00	5.74299907e+00	-2.10251713e-04	-1.87184874e-04	9.45531947e-05	1.29817026e-04
3               	3.03114683e+00	-5.75899139e-04	5.17532263e-04	-6.30741070e-08	8.42498507e-05	-1.66040182e-04	1.51557335e+00	1.51557348e+00	-4.53989752e-04	-1.21909387e-04	3.43015982e-04	1.74516281e-04
4               	-5.79973958e+00	-5.57945067e-04	3.66753955e-05	-1.58995799e-09	1.74814736e-04	-2.17895593e-04	-2.89986979e+00	-2.89986979e+00	-4.96868126e-04	-6.10769403e-05	1.93152434e-04	-1.56477038e-04
5               	-9.65652227e+00	-2.14438681e-03	4.01592566e-03	-2.93835085e-08	-9.52725307e-04	-6.21319026e-04	-4.82826116e+00	-4.82826110e+00	-1.69351243e-03	-4.50874377e-04	1.05523752e-03	2.96068814e-03
6               	-5.24784062e+00	-8.14584206e-04	1.85888276e-03	-1.82028682e-07	-3.96349669e-04	-1.41399282e-04	-2.62392049e+00	-2.62392013e+00	-5.48691385e-04	-2.65892822e-04	5.33091712e-04	1.32579105e-03
7               	1.31867265e+00	4.20108380e-04	-1.87444801e-03	-6.77432605e-08	4.84404454e-04	1.93187585e-04	6.59336256e-01	6.59336392e-01	4.03241775e-04	1.68666054e-05	-4.52819551e-04	-1.42162846e-03
8               	5.46248469e+00	1.51023510e-03	-4.70184605e-03	1.27340292e-07	1.34163732e-03	5.48762605e-04	2.73124247e+00	2.73124222e+00	1.30388016e-03	2.06354948e-04	-1.00928571e-03	-3.69256034e-03
9               	5.07310505e+00	3.05870040e-03	-2.39745217e-03	8.32669461e-08	6.95481977e-04	9.18858288e-04	2.53655261e+00	2.53655244e+00	2.44820849e-03	6.10491912e-04	-5.03244106e-04	-1.89420806e-03
10              	1.75421289e+00	2.12810525e-03	1.23017606e-03	1.06357236e-07	-3.28308371e-04	5.99347780e-04	8.77106549e-01	8.77106336e-01	1.66340040e-03	4.64704845e-04	2.86779660e-04	9.43396401e-04
11              	-1.26989232e+00	1.01244086e-05	3.91168806e-03	9.20500464e-08	-1.08095991e-03	-3.22713303e-05	-6.34946068e-01	-6.34946252e-01	-2.72091260e-05	3.73335346e-05	8.74884116e-04	3.03680394e-03
12              	-2.08497656e+00	-1.41339516e-03	1.58979359e-03	6.01365918e-08	-3.69454558e-04	-3.00787500e-04	-1.04248822e+00	-1.04248834e+00	-1.00748508e-03	-4.05910078e-04	4.25442237e-04	1.16435135e-03
13              	-9.23129843e-01	-8.93500450e-04	-1.36677713e-03	3.82135720e-08	4.67245590e-04	-6.58976312e-05	-4.61564883e-01	-4.61564960e-01	-5.12647856e-04	-3.80852594e-04	-2.16142974e-04	-1.15063415e-03
14              	8.01542490e-01	4.81802394e-04	-3.40385127e-03	3.06275075e-08	9.90614683e-04	2.79045085e-04	4.00771276e-01	4.00771214e-01	5.19946282e-04	-3.81438877e-05	-7.11310953e-04	-2.69254032e-03
15              	1.75226163e+00	1.38968499e-03	-3.08527495e-03	4.25046361e-08	8.42074709e-04	4.01052661e-04	8.76130858e-01	8.76130773e-01	1.09589515e-03	2.93789833e-04	-7.00562766e-04	-2.38471218e-03
16              	1.54546289e+00	1.41640537e-03	-1.72963671e-03	6.08375647e-08	4.27524205e-04	2.96738685e-04	7.72731505e-01	7.72731384e-01	1.00494137e-03	4.11463998e-04	-4.37294148e-04	-1.29234256e-03
17              	7.24922485e-01	6.29147159e-04	-9.46655458e-04	7.48223429e-08	2.94985386e-04	6.46404291e-05	3.62461317e-01	3.62461168e-01	3.79214008e-04	2.49933150e-04	-1.78342343e-04	-7.68313115e-04
18              	4.03010321e-02	-2.47526481e-04	-1.60550356e-03	4.39542099e-08	7.10944504e-04	-1.05717438e-04	2.01505600e-02	2.01504721e-02	-2.29480679e-04	-1.80458023e-05	-9.18072766e-05	-1.51369629e-03
19              	-1.06748684e-01	-4.90779434e-04	-2.66575555e-03	8.51136268e-09	1.17893923e-03	-6.72953059e-05	-5.33743333e-02	-5.33743503e-02	-3.12685023e-04	-1.78094411e-04	-1.53938540e-04	-2.51181701e-03
20              	1.96225156e-01	-5.02526755e-05	-3.50343355e-03	-8.59629586e-09	1.47421393e-03	1.23571250e-04	9.81125694e-02	9.81125866e-02	9.84449121e-05	-1.48697588e-04	-2.77502841e-04	-3.22593071e-03
21              	5.82066916e-01	5.78754491e-04	-3.65212866e-03	-3.15688944e-09	1.45318331e-03	2.83705385e-04	2.91033455e-01	2.91033461e-01	5.73082631e-04	5.67186032e-06	-3.72881026e-04	-3.27924764e-03
22              	7.51209869e-01	1.05276677e-03	-3.39867433e-03	9.48979405e-09	1.29071455e-03	3.53881318e-04	3.75604944e-01	3.75604925e-01	8.80264705e-04	1.72502070e-04	-4.08622611e-04	-2.99005172e-03
23              	6.53385527e-01	1.11039524e-03	-3.11361652e-03	1.24112735e-09	1.16593619e-03	3.18102415e-04	3.26692765e-01	3.26692762e-01	8.73300033e-04	2.37095203e-04	-3.90872072e-04	-2.72274445e-03
24              	4.39235295e-01	8.25106698e-04	-2.98722338e-03	-1.79350552e-08	1.17113904e-03	2.46870795e-04	2.19617630e-01	2.19617665e-01	6.59424144e-04	1.65682554e-04	-3.22472647e-04	-2.66475073e-03
25              	2.88519964e-01	5.04333663e-04	-3.12256475e-03	-3.12304150e-08	1.29994076e-03	2.21262682e-04	1.44259951e-01	1.44260013e-01	4.73429513e-04	3.09041499e-05	-2.61341616e-04	-2.86122313e-03
26              	2.71225544e-01	4.10720471e-04	-3.43876876e-03	-3.10527376e-08	1.48147777e-03	2.76936720e-04	1.35612741e-01	1.35612803e-01	4.82296956e-04	-7.15764848e-05	-2.37906610e-04	-3.20086215e-03
27              	3.41945716e-01	5.68828303e-04	-3.70007869e-03	-4.13236682e-08	1.59038076e-03	3.66465550e-04	1.70972817e-01	1.70972899e-01	6.50879702e-04	-8.20513984e-05	-2.59658587e-04	-3.44042011e-03
28              	4.15464614e-01	7.99059396e-04	-3.76012241e-03	-4.65768483e-08	1.56681916e-03	4.17778121e-04	2.07732260e-01	2.07732354e-01	8.17307819e-04	-1.82484234e-05	-3.13242046e-04	-3.44688037e-03
29              	4.38837218e-01	9.45948026e-04	-3.65070879e-03	-4.66203386e-08	1.44765854e-03	4.02504817e-04	2.19418563e-01	2.19418656e-01	8.75478830e-04	7.04691960e-05	-3.77695858e-04	-3.27301294e-03
30              	4.14238605e-01	9.43350141e-04	-3.48667235e-03	-3.36144466e-08	1.31241734e-03	3.42856697e-04	2.07119269e-01	2.07119336e-01	8.14531768e-04	1.28818373e-04	-4.30918837e-04	-3.05575352e-03
31              	3.75741640e-01	8.42253110e-04	-3.35473970e-03	-1.97203628e-08	1.22114466e-03	2.89260411e-04	1.87870800e-01	1.87870840e-01	7.10386966e-04	1.31866144e-04	-4.56225192e-04	-2.89851451e-03
32              	3.54315318e-01	7.39845320e-04	-3.26917523e-03	-1.54472930e-08	1.18257621e-03	2.81552841e-04	1.77157644e-01	1.77157675e-01	6.51475501e-04	8.83698190e-05	-4.52011399e-04	-2.81716383e-03
33              	3.57483093e-01	7.16669204e-04	-3.28018660e-03	-1.30074529e-08	1.20286445e-03	3.18827696e-04	1.78741534e-01	1.78741560e-01	6.77162298e-04	3.95069058e-05	-4.37228847e-04	-2.84295775e-03
34              	3.72585725e-01	7.85715422e-04	-3.38614998e-03	-6.24639316e-09	1.25652087e-03	3.74080980e-04	1.86292856e-01	1.86292869e-01	7.66938691e-04	1.87767309e-05	-4.36554118e-04	-2.94959586e-03
35              	3.82965612e-01	9.24282973e-04	-3.63277119e-03	-4.39281656e-09	1.34798971e-03	4.22754723e-04	1.91482802e-01	1.91482810e-01	8.84896209e-04	3.93867639e-05	-4.68395890e-04	-3.16437530e-03
36              	3.81453474e-01	1.07365588e-03	-3.97423349e-03	-3.09181623e-09	1.46328099e-03	4.51076719e-04	1.90726734e-01	1.90726740e-01	9.87904657e-04	8.57512189e-05	-5.23835753e-04	-3.45039774e-03
37              	3.71961460e-01	1.19255565e-03	-4.36421134e-03	1.31605223e-09	1.59465797e-03	4.63592810e-04	1.85980731e-01	1.85980729e-01	1.05987063e-03	1.32685015e-04	-5.87447701e-04	-3.77676364e-03
38              	3.62653865e-01	1.26253213e-03	-4.73648264e-03	6.92337236e-09	1.72919639e-03	4.73355112e-04	1.81326939e-01	1.81326926e-01	1.10462118e-03	1.57910952e-04	-6.39044927e-04	-4.09743771e-03
39              	3.58366232e-01	1.30338078e-03	-5.05756109e-03	1.10416236e-08	1.85742612e-03	4.91669782e-04	1.79183127e-01	1.79183105e-01	1.14336017e-03	1.60020607e-04	-6.71354427e-04	-4.38620666e-03
40              	3.58080063e-01	1.33544292e-03	-5.34948512e-03	1.56055993e-08	1.98383675e-03	5.17200421e-04	1.79040047e-01	1.79040016e-01	1.18492188e-03	1.50521038e-04	-6.90905811e-04	-4.65857931e-03
41              	3.57697721e-01	1.38092316e-03	-5.62766387e-03	2.18635794e-08	2.10193791e-03	5.45047988e-04	1.78848882e-01	1.78848839e-01	1.23550957e-03	1.45413591e-04	-7.11894027e-04	-4.91576985e-03
42              	3.54308097e-01	1.45129009e-03	-5.89437627e-03	2.94622962e-08	2.20437620e-03	5.71451839e-04	1.77154078e-01	1.77154019e-01	1.29709688e-03	1.54193207e-04	-7.42811937e-04	-5.15156433e-03
43              	3.48190101e-01	1.53655250e-03	-6.14983029e-03	3.75799067e-08	2.29060386e-03	5.92643366e-04	1.74095088e-01	1.74095013e-01	1.36091962e-03	1.75632884e-04	-7.84311280e-04	-5.36551901e-03
44              	3.41769203e-01	1.63217546e-03	-6.39603584e-03	4.53431764e-08	2.36510754e-03	6.12307658e-04	1.70884647e-01	1.70884556e-01	1.42839539e-03	2.03780074e-04	-8.32910381e-04	-5.56312546e-03
45              	3.37261128e-01	1.72698153e-03	-6.63083171e-03	5.29586259e-08	2.43534280e-03	6.34985724e-04	1.68630617e-01	1.68630511e-01	1.49847649e-03	2.28505040e-04	-8.80073050e-04	-5.75075866e-03
46              	3.35217678e-01	1.81927478e-03	-6.84510313e-03	6.01870630e-08	2.50425338e-03	6.65132608e-04	1.67608899e-01	1.67608779e-01	1.57477000e-03	2.44504782e-04	-9.18298188e-04	-5.92680494e-03
47              	3.34577897e-01	1.91188806e-03	-7.04133078e-03	6.53795895e-08	2.57413271e-03	7.02733524e-04	1.67289014e-01	1.67288883e-01	1.65867755e-03	2.53210507e-04	-9.46532677e-04	-6.09479810e-03
48              	3.33842529e-01	2.01038498e-03	-7.23180681e-03	7.01798015e-08	2.64594984e-03	7.43965155e-04	1.66921335e-01	1.66921194e-01	1.74915765e-03	2.61227336e-04	-9.69953570e-04	-6.26185324e-03
49              	3.32216407e-01	2.11701991e-03	-7.43346622e-03	7.46699721e-08	2.72282947e-03	7.85889685e-04	1.66108278e-01	1.66108129e-01	1.84439964e-03	2.72620273e-04	-9.93903639e-04	-6.43956258e-03
50              	3.29930724e-01	2.23014228e-03	-7.65307552e-03	7.79659471e-08	2.80434634e-03	8.26761140e-04	1.64965440e-01	1.64965284e-01	1.94183228e-03	2.88310003e-04	-1.02219142e-03	-6.63088409e-03
51              	3.27783889e-01	2.34489228e-03	-7.88406784e-03	8.06491117e-08	2.88699622e-03	8.65729476e-04	1.63892025e-01	1.63891864e-01	2.03817561e-03	3.06716662e-04	-1.05503770e-03	-6.82903014e-03
52              	3.26397172e-01	2.45860098e-03	-8.10985919e-03	8.27121920e-08	2.96616276e-03	9.04541245e-04	1.63198669e-01	1.63198503e-01	2.13384173e-03	3.24759244e-04	-1.08876683e-03	-7.02109236e-03
53              	3.25801981e-01	2.56989544e-03	-8.31614555e-03	8.46606937e-08	3.03970289e-03	9.44611056e-04	1.62901075e-01	1.62900906e-01	2.22955878e-03	3.40336666e-04	-1.11836988e-03	-7.19777567e-03
54              	3.25558006e-01	2.68121894e-03	-8.50726923e-03	8.54349475e-08	3.10986134e-03	9.85854369e-04	1.62779089e-01	1.62778918e-01	2.32646384e-03	3.54755102e-04	-1.14377327e-03	-7.36349596e-03
55              	3.25133771e-01	2.79637537e-03	-8.69515968e-03	8.54069454e-08	3.18035436e-03	1.02837331e-03	1.62566971e-01	1.62566800e-01	2.42656100e-03	3.69814374e-04	-1.16722547e-03	-7.52793420e-03
56              	3.24250987e-01	2.91794458e-03	-8.89376724e-03	8.42988988e-08	3.25432198e-03	1.07144968e-03	1.62125578e-01	1.62125409e-01	2.53042197e-03	3.87522612e-04	-1.19256164e-03	-7.70120559e-03
57              	3.22976131e-01	3.04333534e-03	-9.10807378e-03	8.24172644e-08	3.33501584e-03	1.11548855e-03	1.61488148e-01	1.61487983e-01	2.63715622e-03	4.06179124e-04	-1.21902105e-03	-7.88905273e-03
58              	3.21572274e-01	3.17133849e-03	-9.33797127e-03	8.00677859e-08	3.42318717e-03	1.16212652e-03	1.60786217e-01	1.60786057e-01	2.74779576e-03	4.23542726e-04	-1.24579846e-03	-8.09217281e-03
59              	3.20279566e-01	3.30419434e-03	-9.58198773e-03	7.71752426e-08	3.51728673e-03	1.21192762e-03	1.60139860e-01	1.60139706e-01	2.86402479e-03	4.40169554e-04	-1.27370714e-03	-8.30828059e-03
60              	3.19188550e-01	3.44545491e-03	-9.83716964e-03	7.39034921e-08	3.61550721e-03	1.26474661e-03	1.59594349e-01	1.59594201e-01	2.98747406e-03	4.57980849e-04	-1.30307761e-03	-8.53409203e-03
61              	3.18247894e-01	3.59510344e-03	-1.01013465e-02	7.04423222e-08	3.71720651e-03	1.32049266e-03	1.59124017e-01	1.59123876e-01	3.11804438e-03	4.77059056e-04	-1.33346672e-03	-8.76787973e-03
62              	3.17354181e-01	3.75268949e-03	-1.03767314e-02	6.66320157e-08	3.82400519e-03	1.37886346e-03	1.58677157e-01	1.58677024e-01	3.25520821e-03	4.97481285e-04	-1.36436052e-03	-9.01237091e-03
63              	3.16431323e-01	3.91776221e-03	-1.06665252e-02	6.26110985e-08	3.93632831e-03	1.43939696e-03	1.58215724e-01	1.58215599e-01	3.39827806e-03	5.19484148e-04	-1.39693427e-03	-9.26959089e-03
64              	3.15468847e-01	4.08953231e-03	-1.09710069e-02	5.86722474e-08	4.05430706e-03	1.50235285e-03	1.57734482e-01	1.57734365e-01	3.54711901e-03	5.42413301e-04	-1.43119641e-03	-9.53981053e-03
65              	3.14502271e-01	4.26803647e-03	-1.12899332e-02	5.50830766e-08	4.17766466e-03	1.56815077e-03	1.57251191e-01	1.57251080e-01	3.70216901e-03	5.65867468e-04	-1.46730194e-03	-9.82263127e-03
66              	3.13569717e-01	4.45220772e-03	-1.16234907e-02	5.18852801e-08	4.30689871e-03	1.63714382e-03	1.56784911e-01	1.56784807e-01	3.86324768e-03	5.88960041e-04	-1.50484666e-03	-1.01186441e-02
67              	3.12688792e-01	4.64246986e-03	-1.19743807e-02	4.92216101e-08	4.44300271e-03	1.70942213e-03	1.56344445e-01	1.56344347e-01	4.03065706e-03	6.11812802e-04	-1.54418762e-03	-1.04301930e-02
68              	3.11850912e-01	4.84297860e-03	-1.23461594e-02	4.71146370e-08	4.58635750e-03	1.78527738e-03	1.55925503e-01	1.55925409e-01	4.20676668e-03	6.36211916e-04	-1.58672221e-03	-1.07594372e-02
69              	3.11029189e-01	5.05592746e-03	-1.27389971e-02	4.52939388e-08	4.73641031e-03	1.86465891e-03	1.55514640e-01	1.55514549e-01	4.39262265e-03	6.63304818e-04	-1.63308826e-03	-1.11059089e-02
70              	3.10196427e-01	5.28073136e-03	-1.31520772e-02	4.37706579e-08	4.89327196e-03	1.94801899e-03	1.55098257e-01	1.55098170e-01	4.58838467e-03	6.92346690e-04	-1.68276666e-03	-1.14693106e-02
71              	3.09339694e-01	5.51585416e-03	-1.35874117e-02	4.23343986e-08	5.05836504e-03	2.03556606e-03	1.54669890e-01	1.54669805e-01	4.79349314e-03	7.22361025e-04	-1.73534081e-03	-1.18520709e-02
72              	3.08464174e-01	5.76106175e-03	-1.40463819e-02	4.10796088e-08	5.23234358e-03	2.12735173e-03	1.54232128e-01	1.54232046e-01	5.00788260e-03	7.53179143e-04	-1.79084738e-03	-1.22555345e-02
73              	3.07589095e-01	6.01559665e-03	-1.45288671e-02	4.01407949e-08	5.41482619e-03	2.22303374e-03	1.53794588e-01	1.53794508e-01	5.23083206e-03	7.84764584e-04	-1.84960734e-03	-1.26792597e-02
74              	3.06728549e-01	6.27932322e-03	-1.50344096e-02	3.92931200e-08	5.60534440e-03	2.32228233e-03	1.53364314e-01	1.53364235e-01	5.46194394e-03	8.17379277e-04	-1.91186038e-03	-1.31225492e-02
75              	3.05888611e-01	6.55413161e-03	-1.55642707e-02	3.85831551e-08	5.80413183e-03	2.42541323e-03	1.52944344e-01	1.52944267e-01	5.70247904e-03	8.51652575e-04	-1.97800353e-03	-1.35862672e-02
76              	3.05074698e-01	6.84026895e-03	-1.61175679e-02	3.79197267e-08	6.01108831e-03	2.53242197e-03	1.52537387e-01	1.52537311e-01	5.95255645e-03	8.87712504e-04	-2.04769565e-03	-1.40698723e-02
77              	3.04285880e-01	7.13653933e-03	-1.66945624e-02	3.72279211e-08	6.22645990e-03	2.64294459e-03	1.52142977e-01	1.52142903e-01	6.21121426e-03	9.25325073e-04	-2.12082133e-03	-1.45737411e-02
78              	3.03516147e-01	7.44331998e-03	-1.72945617e-02	3.63330336e-08	6.45006834e-03	2.75733306e-03	1.51758110e-01	1.51758037e-01	6.47899304e-03	9.64326933e-04	-2.19721253e-03	-1.50973492e-02
