# Force coefficients
# dragDir       : (1.00000000e+00 0.00000000e+00 0.00000000e+00)
# sideDir       : (0.00000000e+00 0.00000000e+00 -1.00000000e+00)
# liftDir       : (0.00000000e+00 1.00000000e+00 0.00000000e+00)
# rollAxis      : (1.00000000e+00 0.00000000e+00 0.00000000e+00)
# pitchAxis     : (0.00000000e+00 0.00000000e+00 -1.00000000e+00)
# yawAxis       : (0.00000000e+00 1.00000000e+00 0.00000000e+00)
# magUInf       : 2.00000000e+00
# lRef          : 1.50000000e+00
# Aref          : 1.76641672e-02
# CofR          : (0.00000000e+00 0.00000000e+00 0.00000000e+00)
#
# Time          	Cd              	Cs              	Cl              	CmRoll          	CmPitch         	CmYaw           	Cd(f)           	Cd(r)           	Cs(f)           	Cs(r)           	Cl(f)           	Cl(r)           
1               	9.69017141e+00	1.38073289e-02	-1.51866286e-03	1.28998327e-07	-1.05390575e-03	-4.99182959e-03	4.84508584e+00	4.84508558e+00	1.91183488e-03	1.18954941e-02	-1.81323718e-03	2.94574315e-04
2               	8.68534477e+00	1.33698105e-02	-3.08501785e-03	9.73296898e-08	-1.58210078e-03	-4.76364220e-03	4.34267248e+00	4.34267229e+00	1.92126305e-03	1.14485475e-02	-3.12460970e-03	3.95918536e-05
3               	2.45574342e+00	3.79602704e-03	-2.40163719e-03	-4.21448764e-08	-1.05760920e-03	-1.15248126e-03	1.22787167e+00	1.22787175e+00	7.45532264e-04	3.05049478e-03	-2.25842780e-03	-1.43209394e-04
4               	-3.11893930e+00	-5.26644465e-03	-2.28210770e-04	-2.06082916e-07	5.76498821e-05	2.16241316e-03	-1.55946986e+00	-1.55946944e+00	-4.70809161e-04	-4.79563549e-03	-5.64555029e-05	-1.71755267e-04
5               	-4.71386974e+00	-7.55038229e-03	2.45659766e-03	-1.36955174e-07	1.13002257e-03	2.60887200e-03	-2.35693501e+00	-2.35693474e+00	-1.16631915e-03	-6.38406315e-03	2.35832140e-03	9.82762612e-05
6               	-2.34346559e+00	-3.30950500e-03	3.30713654e-03	-3.57562633e-08	1.32374877e-03	7.43377840e-04	-1.17173283e+00	-1.17173276e+00	-9.11374660e-04	-2.39813034e-03	2.97731704e-03	3.29819500e-04
7               	9.59105016e-01	2.90940609e-03	9.97387714e-04	-2.23970083e-08	9.04082765e-04	-1.22371244e-03	4.79552486e-01	4.79552531e-01	2.30990602e-04	2.67841548e-03	1.40277662e-03	-4.05388908e-04
8               	2.92902431e+00	6.99384738e-03	-1.81673618e-03	-2.25599402e-08	-1.66457227e-04	-1.26696722e-03	1.46451213e+00	1.46451218e+00	2.22995647e-03	4.76389092e-03	-1.07482532e-03	-7.41910865e-04
9               	2.66553479e+00	4.15763437e-03	-2.76066430e-03	-1.09842209e-07	-1.09694009e-03	-6.63299014e-04	1.33276729e+00	1.33276751e+00	1.41551817e-03	2.74211620e-03	-2.47727224e-03	-2.83392058e-04
10              	9.10670841e-01	-1.28896485e-03	-5.41333621e-04	-1.46326311e-07	-1.41165218e-03	6.88668702e-06	4.55335274e-01	4.55335567e-01	-6.37595740e-04	-6.51369114e-04	-1.68231899e-03	1.14098537e-03
11              	-5.88950032e-01	-3.01875060e-03	2.08906241e-03	-4.11490168e-08	-8.81419203e-04	8.70359984e-04	-2.94475057e-01	-2.94474975e-01	-6.39015317e-04	-2.37973529e-03	1.63112003e-04	1.92595041e-03
12              	-9.80461591e-01	-2.96654872e-03	4.17548573e-03	-4.38301701e-07	-3.30385731e-04	4.49660957e-04	-4.90231234e-01	-4.90230357e-01	-1.03361340e-03	-1.93293532e-03	1.75735714e-03	2.41812860e-03
13              	-3.63664527e-01	-1.08155049e-03	4.67142873e-03	-2.12747727e-07	-3.76631228e-04	-2.69034262e-04	-1.81832476e-01	-1.81832051e-01	-8.09809507e-04	-2.71740982e-04	1.95908314e-03	2.71234560e-03
14              	5.22410105e-01	8.86456980e-04	3.13691948e-03	-3.02190337e-07	-6.60289215e-04	-5.92682435e-04	2.61204750e-01	2.61205355e-01	-1.49453945e-04	1.03591092e-03	9.08170523e-04	2.22874895e-03
15              	1.02375336e+00	1.26839036e-03	6.29408854e-04	-2.90539280e-07	-7.94792406e-04	-3.91719957e-04	5.11876390e-01	5.11876971e-01	2.42475224e-04	1.02591514e-03	-4.80087979e-04	1.10949683e-03
16              	9.45998883e-01	2.38143235e-04	-6.22540893e-04	-2.43202768e-07	-8.42088561e-04	2.26922934e-05	4.72999198e-01	4.72999685e-01	1.41763911e-04	9.63793239e-05	-1.15335901e-03	5.30818114e-04
17              	5.06436007e-01	-8.78761626e-04	3.68228163e-04	-2.20689108e-07	-9.04489717e-04	3.19352814e-04	2.53217783e-01	2.53218224e-01	-1.20028000e-04	-7.58733627e-04	-7.20375636e-04	1.08860380e-03
18              	1.27899925e-01	-1.30560500e-03	2.30626213e-03	-2.00844476e-07	-9.50677290e-04	3.29027077e-04	6.39497617e-02	6.39501634e-02	-3.23775423e-04	-9.81829578e-04	2.02453774e-04	2.10380835e-03
19              	4.84292752e-02	-9.75779006e-04	3.48545114e-03	-1.74627003e-07	-8.72809538e-04	9.38560319e-05	2.42144630e-02	2.42148122e-02	-3.94033471e-04	-5.81745535e-04	8.69916035e-04	2.61553511e-03
20              	2.37443535e-01	-3.45099333e-04	3.19410062e-03	-1.35666303e-07	-7.34769606e-04	-8.54431916e-05	1.18721632e-01	1.18721903e-01	-2.57992858e-04	-8.71064751e-05	8.62280703e-04	2.33181991e-03
21              	5.00225781e-01	-3.58251808e-05	2.08629240e-03	-1.03337436e-07	-6.68767306e-04	-1.50523281e-04	2.50112787e-01	2.50112994e-01	-1.68435872e-04	1.32610691e-04	3.74378893e-04	1.71191350e-03
22              	6.48080571e-01	-1.52431273e-04	1.25273492e-03	-8.74714152e-08	-7.34620162e-04	-1.09235591e-04	3.24040198e-01	3.24040373e-01	-1.85451227e-04	3.30199543e-05	-1.08252704e-04	1.36098762e-03
23              	6.23705877e-01	-5.57165063e-04	1.25705643e-03	-8.31960431e-08	-8.53741865e-04	-5.82984575e-05	3.11852855e-01	3.11853021e-01	-3.36880989e-04	-2.20284074e-04	-2.25213650e-04	1.48227008e-03
24              	5.08248235e-01	-8.27855773e-04	1.99205697e-03	-9.27889833e-08	-9.58628794e-04	-4.56800247e-05	2.54124025e-01	2.54124210e-01	-4.59607911e-04	-3.68247862e-04	3.73996909e-05	1.95465728e-03
25              	4.15411854e-01	-9.11846857e-04	2.94462080e-03	-9.75225036e-08	-1.05561307e-03	-1.15459504e-04	2.07705829e-01	2.07706024e-01	-5.71382932e-04	-3.40463924e-04	4.16697332e-04	2.52792346e-03
26              	4.05683108e-01	-7.33095434e-04	3.50467566e-03	-1.07206896e-07	-1.11198442e-03	-1.72653551e-04	2.02841447e-01	2.02841661e-01	-5.39201269e-04	-1.93894166e-04	6.40353408e-04	2.86432225e-03
27              	4.60782717e-01	-5.05097199e-04	3.48758223e-03	-1.14447601e-07	-1.12318169e-03	-2.02550096e-04	2.30391244e-01	2.30391473e-01	-4.55098695e-04	-4.99985031e-05	6.20609425e-04	2.86697281e-03
28              	5.22365989e-01	-4.04004967e-04	3.25364473e-03	-1.19620049e-07	-1.15929647e-03	-1.96139459e-04	2.61182875e-01	2.61183114e-01	-3.98141942e-04	-5.86302487e-06	4.67525892e-04	2.78611884e-03
29              	5.44391637e-01	-4.82493360e-04	3.15094023e-03	-1.15317024e-07	-1.23898362e-03	-1.88629744e-04	2.72195703e-01	2.72195934e-01	-4.29876423e-04	-5.26169363e-05	3.36486495e-04	2.81445374e-03
30              	5.19367168e-01	-6.32324620e-04	3.42369781e-03	-1.05831900e-07	-1.37265634e-03	-2.02557675e-04	2.59683478e-01	2.59683690e-01	-5.18719985e-04	-1.13604635e-04	3.39192560e-04	3.08450525e-03
31              	4.71108947e-01	-7.48985183e-04	4.11764247e-03	-9.27026862e-08	-1.57161093e-03	-2.36561324e-04	2.35554381e-01	2.35554566e-01	-6.11053916e-04	-1.37931268e-04	4.87210303e-04	3.63043216e-03
32              	4.32422868e-01	-8.15778943e-04	4.78680831e-03	-8.21136618e-08	-1.74672479e-03	-2.75622807e-04	2.16211352e-01	2.16211516e-01	-6.83512279e-04	-1.32266664e-04	6.46679361e-04	4.14012894e-03
33              	4.18464966e-01	-8.38694960e-04	5.18858432e-03	-7.50058795e-08	-1.86402184e-03	-3.02192644e-04	2.09232408e-01	2.09232558e-01	-7.21540124e-04	-1.17154837e-04	7.30270324e-04	4.45831399e-03
34              	4.22798874e-01	-8.37534525e-04	5.40169828e-03	-7.27602361e-08	-1.96706299e-03	-3.07381382e-04	2.11399364e-01	2.11399510e-01	-7.26148644e-04	-1.11385880e-04	7.33786145e-04	4.66791213e-03
35              	4.29648775e-01	-8.64365114e-04	5.49056962e-03	-7.47305581e-08	-2.06108402e-03	-3.12696839e-04	2.14824313e-01	2.14824462e-01	-7.44879396e-04	-1.19485717e-04	6.84200785e-04	4.80636883e-03
36              	4.27967053e-01	-9.37029291e-04	5.66877900e-03	-7.81031629e-08	-2.17715928e-03	-3.35128028e-04	2.13983448e-01	2.13983605e-01	-8.03642674e-04	-1.33386618e-04	6.57230217e-04	5.01154879e-03
37              	4.17570831e-01	-1.06092238e-03	6.03325274e-03	-8.06121653e-08	-2.32997965e-03	-3.81866479e-04	2.08785335e-01	2.08785496e-01	-9.12327671e-04	-1.48594714e-04	6.86646723e-04	5.34660602e-03
38              	4.05175298e-01	-1.19604745e-03	6.45579590e-03	-7.97086098e-08	-2.47421894e-03	-4.40339482e-04	2.02587569e-01	2.02587729e-01	-1.03836321e-03	-1.57684242e-04	7.53679007e-04	5.70211689e-03
39              	3.97886190e-01	-1.31494041e-03	6.84425234e-03	-8.08491496e-08	-2.59980289e-03	-4.94150669e-04	1.98943014e-01	1.98943176e-01	-1.15162087e-03	-1.63319536e-04	8.22323277e-04	6.02192907e-03
40              	3.98698691e-01	-1.39106439e-03	7.18811514e-03	-7.86148683e-08	-2.72620085e-03	-5.25272650e-04	1.99349267e-01	1.99349424e-01	-1.22080485e-03	-1.70259544e-04	8.67856716e-04	6.32025842e-03
41              	4.04725083e-01	-1.42565476e-03	7.52604692e-03	-7.08933202e-08	-2.86983348e-03	-5.35646391e-04	2.02362471e-01	2.02362613e-01	-1.24847377e-03	-1.77180988e-04	8.93189985e-04	6.63285694e-03
42              	4.10411705e-01	-1.46621553e-03	7.87221583e-03	-6.33100892e-08	-3.02221565e-03	-5.50190684e-04	2.05205789e-01	2.05205916e-01	-1.28329845e-03	-1.82917081e-04	9.13892265e-04	6.95832357e-03
43              	4.11855203e-01	-1.54372981e-03	8.21984219e-03	-5.77025514e-08	-3.17025640e-03	-5.84008690e-04	2.05927544e-01	2.05927659e-01	-1.35587360e-03	-1.87856217e-04	9.39664693e-04	7.28017750e-03
44              	4.08824866e-01	-1.63503012e-03	8.57926416e-03	-5.26079726e-08	-3.31320599e-03	-6.27384309e-04	2.04412381e-01	2.04412486e-01	-1.44489937e-03	-1.90130753e-04	9.76426085e-04	7.60283807e-03
45              	4.03606395e-01	-1.69793278e-03	9.01054372e-03	-4.85239974e-08	-3.47418176e-03	-6.58534647e-04	2.01803149e-01	2.01803246e-01	-1.50750104e-03	-1.90431741e-04	1.03109010e-03	7.97945363e-03
46              	3.98500095e-01	-1.74399110e-03	9.48947677e-03	-4.45105975e-08	-3.65263732e-03	-6.78826801e-04	1.99250003e-01	1.99250092e-01	-1.55082235e-03	-1.93168747e-04	1.09210107e-03	8.39737570e-03
47              	3.94386179e-01	-1.79513152e-03	9.98694708e-03	-4.06002385e-08	-3.84339905e-03	-6.96322043e-04	1.97193049e-01	1.97193130e-01	-1.59388780e-03	-2.01243715e-04	1.15007449e-03	8.83687259e-03
48              	3.90852585e-01	-1.86230180e-03	1.04589865e-02	-4.01695766e-08	-4.02981009e-03	-7.19164122e-04	1.95426252e-01	1.95426333e-01	-1.65031502e-03	-2.11986779e-04	1.19968317e-03	9.25930335e-03
49              	3.87085006e-01	-1.94997234e-03	1.08928566e-02	-3.94935535e-08	-4.20441136e-03	-7.51555643e-04	1.93542464e-01	1.93542543e-01	-1.72654181e-03	-2.23430526e-04	1.24201696e-03	9.65083967e-03
50              	3.82704287e-01	-2.06252372e-03	1.13535064e-02	-3.70880615e-08	-4.38766434e-03	-7.96570358e-04	1.91352106e-01	1.91352181e-01	-1.82783222e-03	-2.34691500e-04	1.28908886e-03	1.00644175e-02
51              	3.77911770e-01	-2.19733572e-03	1.19071050e-02	-3.50050310e-08	-4.60363989e-03	-8.51015925e-04	1.88955850e-01	1.88955920e-01	-1.94968379e-03	-2.47651936e-04	1.34991261e-03	1.05571924e-02
52              	3.73295016e-01	-2.35515523e-03	1.25975296e-02	-3.30946914e-08	-4.86935976e-03	-9.13203513e-04	1.86647475e-01	1.86647541e-01	-2.09078113e-03	-2.64374101e-04	1.42940503e-03	1.11681246e-02
53              	3.69369902e-01	-2.53224357e-03	1.34025544e-02	-3.20524240e-08	-5.17916217e-03	-9.81358814e-04	1.84684919e-01	1.84684983e-01	-2.24748060e-03	-2.84762973e-04	1.52211503e-03	1.18804394e-02
54              	3.66300969e-01	-2.72782684e-03	1.42428970e-02	-3.20321789e-08	-5.50494121e-03	-1.05627354e-03	1.83150452e-01	1.83150516e-01	-2.42018696e-03	-3.07639877e-04	1.61650731e-03	1.26263897e-02
55              	3.63837517e-01	-2.94809637e-03	1.50773079e-02	-3.21031956e-08	-5.82994355e-03	-1.14087512e-03	1.81918727e-01	1.81918791e-01	-2.61492331e-03	-3.33173066e-04	1.70871041e-03	1.33685975e-02
56              	3.61618770e-01	-3.18790679e-03	1.59130215e-02	-3.25508884e-08	-6.15534607e-03	-1.23352877e-03	1.80809352e-01	1.80809417e-01	-2.82748217e-03	-3.60424622e-04	1.80116468e-03	1.41118568e-02
57              	3.59505635e-01	-3.44352680e-03	1.67896336e-02	-3.29497023e-08	-6.49504397e-03	-1.33261153e-03	1.79752784e-01	1.79752850e-01	-3.05437493e-03	-3.89151865e-04	1.89977281e-03	1.48898608e-02
58              	3.57544168e-01	-3.71369574e-03	1.77514410e-02	-3.30385392e-08	-6.86588338e-03	-1.43736065e-03	1.78772051e-01	1.78772117e-01	-3.29420853e-03	-4.19487217e-04	2.00983710e-03	1.57416039e-02
59              	3.55816289e-01	-3.99786062e-03	1.88032681e-02	-3.31668165e-08	-7.27043462e-03	-1.54722617e-03	1.77908111e-01	1.77908178e-01	-3.54615648e-03	-4.51704134e-04	2.13119941e-03	1.66720686e-02
60              	3.54339055e-01	-4.29503219e-03	1.99145242e-02	-3.23060250e-08	-7.69772307e-03	-1.66185409e-03	1.77169495e-01	1.77169560e-01	-3.80937018e-03	-4.85662011e-04	2.25953901e-03	1.76549851e-02
61              	3.53060086e-01	-4.60741020e-03	2.10634436e-02	-3.10306875e-08	-8.13943741e-03	-1.78264215e-03	1.76530012e-01	1.76530074e-01	-4.08634725e-03	-5.21062946e-04	2.39228438e-03	1.86711592e-02
62              	3.51909058e-01	-4.93343249e-03	2.22520876e-02	-2.91828987e-08	-8.59672182e-03	-1.90944971e-03	1.75954500e-01	1.75954558e-01	-4.37616595e-03	-5.57266540e-04	2.52932198e-03	1.97227656e-02
63              	3.50834000e-01	-5.27296624e-03	2.34948686e-02	-2.71405944e-08	-9.07467563e-03	-2.04213673e-03	1.75416973e-01	1.75417027e-01	-4.67861986e-03	-5.94346387e-04	2.67275867e-03	2.08221099e-02
64              	3.49794850e-01	-5.62958161e-03	2.48160178e-02	-2.50963887e-08	-9.58220479e-03	-2.18118209e-03	1.74897400e-01	1.74897450e-01	-4.99597290e-03	-6.33608710e-04	2.82580412e-03	2.19902137e-02
65              	3.48790461e-01	-6.00227277e-03	2.62245489e-02	-2.27984299e-08	-1.01227209e-02	-2.32560572e-03	1.74395208e-01	1.74395253e-01	-5.32674211e-03	-6.75530663e-04	2.98955352e-03	2.32349954e-02
66              	3.47833227e-01	-6.39530108e-03	2.77172511e-02	-2.11239278e-08	-1.06951211e-02	-2.47723108e-03	1.73916592e-01	1.73916635e-01	-5.67488162e-03	-7.20419455e-04	3.16350445e-03	2.45537467e-02
67              	3.46942447e-01	-6.80958528e-03	2.92893725e-02	-1.95214257e-08	-1.12976093e-02	-2.63691521e-03	1.73471204e-01	1.73471243e-01	-6.04170785e-03	-7.67877436e-04	3.34707698e-03	2.59422955e-02
68              	3.46140016e-01	-7.24202256e-03	3.09404985e-02	-1.77620125e-08	-1.19301577e-02	-2.80388639e-03	1.73069990e-01	1.73070026e-01	-6.42489767e-03	-8.17124888e-04	3.54009155e-03	2.74004069e-02
69              	3.45428044e-01	-7.69171552e-03	3.26758555e-02	-1.57498662e-08	-1.25949658e-02	-2.97792245e-03	1.72714006e-01	1.72714038e-01	-6.82378021e-03	-8.67935308e-04	3.74296199e-03	2.89328935e-02
70              	3.44793433e-01	-8.16423926e-03	3.45022502e-02	-1.54334458e-08	-1.32946761e-02	-3.16096210e-03	1.72396701e-01	1.72396732e-01	-7.24308173e-03	-9.21157530e-04	3.95644901e-03	3.05458012e-02
71              	3.44221859e-01	-8.65840980e-03	3.64251968e-02	-1.77500971e-08	-1.40312692e-02	-3.35218409e-03	1.72110912e-01	1.72110947e-01	-7.68138899e-03	-9.77020811e-04	4.18132918e-03	3.22438676e-02
72              	3.43687581e-01	-9.17552443e-03	3.84413084e-02	-1.97982217e-08	-1.48032915e-02	-3.55190947e-03	1.71843771e-01	1.71843811e-01	-8.13967168e-03	-1.03585275e-03	4.41736271e-03	3.40239457e-02
73              	3.43173388e-01	-9.71760125e-03	4.05489128e-02	-2.15206864e-08	-1.56103678e-02	-3.76082218e-03	1.71586672e-01	1.71586715e-01	-8.61962281e-03	-1.09797845e-03	4.66408861e-03	3.58848242e-02
74              	3.42676743e-01	-1.02839626e-02	4.27522444e-02	-2.35617047e-08	-1.64543430e-02	-3.97874513e-03	1.71338348e-01	1.71338395e-01	-9.12072642e-03	-1.16323615e-03	4.92177922e-03	3.78304652e-02
75              	3.42183974e-01	-1.08709382e-02	4.50546890e-02	-2.60991643e-08	-1.73363775e-02	-4.20453030e-03	1.71091961e-01	1.71092013e-01	-9.63999939e-03	-1.23093880e-03	5.19096703e-03	3.98637220e-02
76              	3.41689494e-01	-1.14822772e-02	4.74570848e-02	-2.85770644e-08	-1.82565073e-02	-4.43975332e-03	1.70844718e-01	1.70844776e-01	-1.01808919e-02	-1.30138529e-03	5.47203509e-03	4.19850497e-02
77              	3.41200608e-01	-1.21245123e-02	4.99594495e-02	-3.07119067e-08	-1.92146615e-02	-4.68700144e-03	1.70600273e-01	1.70600335e-01	-1.07492576e-02	-1.37525471e-03	5.76506329e-03	4.41943862e-02
78              	3.40727822e-01	-1.27980375e-02	5.25581790e-02	-3.20396652e-08	-2.02094689e-02	-4.94638413e-03	1.70363879e-01	1.70363943e-01	-1.13454029e-02	-1.45263464e-03	6.06962056e-03	4.64885584e-02
79              	3.40272962e-01	-1.34980866e-02	5.52509872e-02	-3.39120425e-08	-2.12402348e-02	-5.21591987e-03	1.70136447e-01	1.70136515e-01	-1.19649632e-02	-1.53312342e-03	6.38525880e-03	4.88657284e-02
80              	3.39826000e-01	-1.42237875e-02	5.80409469e-02	-3.70794699e-08	-2.23081719e-02	-5.49519246e-03	1.69912963e-01	1.69913037e-01	-1.26070862e-02	-1.61670128e-03	6.71230150e-03	5.13286454e-02
81              	3.39384043e-01	-1.49766131e-02	6.09348231e-02	-4.15212070e-08	-2.34159024e-02	-5.78483796e-03	1.69691980e-01	1.69692063e-01	-1.32731445e-02	-1.70346861e-03	7.05150911e-03	5.38833140e-02
82              	3.38955983e-01	-1.57617484e-02	6.39386905e-02	-4.72940713e-08	-2.45656737e-02	-6.08689751e-03	1.69477944e-01	1.69478039e-01	-1.39677717e-02	-1.79397670e-03	7.40367154e-03	5.65350190e-02
83              	3.38554205e-01	-1.65818243e-02	6.70586186e-02	-5.38664129e-08	-2.57598182e-02	-6.40251395e-03	1.69277049e-01	1.69277156e-01	-1.46934261e-02	-1.88839822e-03	7.76949111e-03	5.92891275e-02
84              	3.38187731e-01	-1.74392387e-02	7.02940735e-02	-5.96360612e-08	-2.69979174e-02	-6.73254071e-03	1.69093806e-01	1.69093925e-01	-1.54521601e-02	-1.98707864e-03	8.14911935e-03	6.21449542e-02
85              	3.37872455e-01	-1.83286744e-02	7.36425683e-02	-6.64103118e-08	-2.82788828e-02	-7.07497747e-03	1.68936161e-01	1.68936294e-01	-1.62393147e-02	-2.08935973e-03	8.54240138e-03	6.51001669e-02
86              	3.37613211e-01	-1.92428499e-02	7.71013709e-02	-7.32183386e-08	-2.96016436e-02	-7.42703254e-03	1.68806532e-01	1.68806679e-01	-1.70484575e-02	-2.19439239e-03	8.94904190e-03	6.81523290e-02
87              	3.37418771e-01	-2.01822997e-02	8.06769006e-02	-8.04480774e-08	-3.09686751e-02	-7.78876397e-03	1.68709305e-01	1.68709466e-01	-1.78799138e-02	-2.30238590e-03	9.36977519e-03	7.13071255e-02
88              	3.37292591e-01	-2.11495721e-02	8.43742327e-02	-8.87072288e-08	-3.23818543e-02	-8.16108327e-03	1.68646207e-01	1.68646384e-01	-1.87358693e-02	-2.41370278e-03	9.80526205e-03	7.45689706e-02
89              	3.37230328e-01	-2.21511031e-02	8.82045272e-02	-9.71047299e-08	-3.38454711e-02	-8.54656316e-03	1.68615067e-01	1.68615261e-01	-1.96221147e-02	-2.52898840e-03	1.02567926e-02	7.79477347e-02
90              	3.37237194e-01	-2.31858444e-02	9.21641071e-02	-1.05565177e-07	-3.53581150e-02	-8.94497433e-03	1.68618492e-01	1.68618703e-01	-2.05378966e-02	-2.64794789e-03	1.07239386e-02	8.14401685e-02
91              	3.37325516e-01	-2.42470816e-02	9.62469323e-02	-1.15394944e-07	-3.69175352e-02	-9.35375748e-03	1.68662643e-01	1.68662873e-01	-2.14772983e-02	-2.76978330e-03	1.12059310e-02	8.50410013e-02
92              	3.37512400e-01	-2.53329745e-02	1.00440196e-01	-1.26341215e-07	-3.85189181e-02	-9.77210728e-03	1.68756074e-01	1.68756326e-01	-2.24385945e-02	-2.89437996e-03	1.17011796e-02	8.87390159e-02
93              	3.37792475e-01	-2.64493413e-02	1.04747231e-01	-1.37418955e-07	-4.01634982e-02	-1.02021933e-02	1.68896100e-01	1.68896375e-01	-2.34268640e-02	-3.02247735e-03	1.22101175e-02	9.25371138e-02
94              	3.38153122e-01	-2.75991682e-02	1.09176886e-01	-1.47761247e-07	-4.18546036e-02	-1.06450604e-02	1.69076413e-01	1.69076709e-01	-2.44446445e-02	-3.15452372e-03	1.27338395e-02	9.64430467e-02
95              	3.38600263e-01	-2.87766767e-02	1.13723129e-01	-1.58181152e-07	-4.35898720e-02	-1.10984969e-02	1.69299973e-01	1.69300290e-01	-2.54868352e-02	-3.28984147e-03	1.32716923e-02	1.00451436e-01
96              	3.39140716e-01	-2.99757312e-02	1.18374504e-01	-1.68813516e-07	-4.53648568e-02	-1.15602173e-02	1.69570189e-01	1.69570527e-01	-2.65480829e-02	-3.42764829e-03	1.38223949e-02	1.04552109e-01
97              	3.39779779e-01	-3.11926223e-02	1.23113200e-01	-1.80439113e-07	-4.71728374e-02	-1.20288354e-02	1.69889709e-01	1.69890070e-01	-2.76251466e-02	-3.56747576e-03	1.43837625e-02	1.08729437e-01
98              	3.40539011e-01	-3.24300526e-02	1.27926292e-01	-1.93068114e-07	-4.90089253e-02	-1.25053082e-02	1.70269312e-01	1.70269698e-01	-2.87203345e-02	-3.70971810e-03	1.49542208e-02	1.12972071e-01
99              	3.41414122e-01	-3.36851404e-02	1.32809494e-01	-2.05923116e-07	-5.08713873e-02	-1.29884322e-02	1.70706855e-01	1.70707267e-01	-2.98310024e-02	-3.85413800e-03	1.55333595e-02	1.17276134e-01
100             	3.42393894e-01	-3.49558173e-02	1.37748749e-01	-2.19689443e-07	-5.27547307e-02	-1.34773737e-02	1.71196727e-01	1.71197166e-01	-3.09552824e-02	-4.00053496e-03	1.61196439e-02	1.21629105e-01
101             	3.43480523e-01	-3.62424026e-02	1.42727068e-01	-2.34775574e-07	-5.46521118e-02	-1.39722924e-02	1.71740027e-01	1.71740496e-01	-3.20934937e-02	-4.14890889e-03	1.67114221e-02	1.26015646e-01
102             	3.44681289e-01	-3.75401678e-02	1.47721717e-01	-2.51337971e-07	-5.65546364e-02	-1.44713404e-02	1.72340393e-01	1.72340896e-01	-3.32414244e-02	-4.29874347e-03	1.73062222e-02	1.30415495e-01
103             	3.45994875e-01	-3.88399247e-02	1.52709882e-01	-2.68957903e-07	-5.84535783e-02	-1.49708922e-02	1.72997168e-01	1.72997706e-01	-3.43908546e-02	-4.44907011e-03	1.79013628e-02	1.34808519e-01
104             	3.47390298e-01	-4.01339136e-02	1.57672690e-01	-2.87107423e-07	-6.03417968e-02	-1.54679282e-02	1.73694862e-01	1.73695436e-01	-3.55348850e-02	-4.59902861e-03	1.84945485e-02	1.39178142e-01
105             	3.48855023e-01	-4.14227325e-02	1.62590578e-01	-3.06543867e-07	-6.22116243e-02	-1.59625948e-02	1.74427205e-01	1.74427818e-01	-3.66739611e-02	-4.74877140e-03	1.90836648e-02	1.43506913e-01
106             	3.50394164e-01	-4.27141399e-02	1.67440779e-01	-3.27915275e-07	-6.40540494e-02	-1.64578580e-02	1.75196754e-01	1.75197410e-01	-3.78149280e-02	-4.89921191e-03	1.96663403e-02	1.47774439e-01
107             	3.52047437e-01	-4.39968689e-02	1.72187793e-01	-3.51419679e-07	-6.58552114e-02	-1.69493941e-02	1.76023367e-01	1.76024070e-01	-3.89478286e-02	-5.04904033e-03	2.02386850e-02	1.51949108e-01
108             	3.53806880e-01	-4.52602466e-02	1.76799445e-01	-3.76740633e-07	-6.76026564e-02	-1.74329512e-02	1.76903063e-01	1.76903817e-01	-4.00630745e-02	-5.19717207e-03	2.07970659e-02	1.56002379e-01
109             	3.55659278e-01	-4.64985020e-02	1.81244205e-01	-4.03962210e-07	-6.92843981e-02	-1.79061374e-02	1.77829235e-01	1.77830043e-01	-4.11553884e-02	-5.34311361e-03	2.13377041e-02	1.59906500e-01
110             	3.57620325e-01	-4.77054263e-02	1.85475304e-01	-4.32712581e-07	-7.08827269e-02	-1.83665579e-02	1.78809730e-01	1.78810595e-01	-4.22192711e-02	-5.48615528e-03	2.18549249e-02	1.63620379e-01
111             	3.59677718e-01	-4.88752253e-02	1.89450193e-01	-4.64184172e-07	-7.23812835e-02	-1.88119880e-02	1.79838395e-01	1.79839323e-01	-4.32496006e-02	-5.62562469e-03	2.23438131e-02	1.67106380e-01
112             	3.61841685e-01	-4.99865961e-02	1.93124991e-01	-4.98830192e-07	-7.37630681e-02	-1.92343129e-02	1.80920344e-01	1.80921341e-01	-4.42276110e-02	-5.75898510e-03	2.27994275e-02	1.70325564e-01
113             	3.64090883e-01	-5.10300800e-02	1.96468386e-01	-5.36142315e-07	-7.50158363e-02	-1.96298390e-02	1.82044905e-01	1.82045978e-01	-4.51448790e-02	-5.88520102e-03	2.32183568e-02	1.73250029e-01
114             	3.66428702e-01	-5.20044034e-02	1.99430248e-01	-5.76906913e-07	-7.61203852e-02	-1.99979216e-02	1.83213774e-01	1.83214928e-01	-4.60001233e-02	-6.00428012e-03	2.35947389e-02	1.75835509e-01
115             	3.68867616e-01	-5.29007148e-02	2.01956956e-01	-6.21277916e-07	-7.70563697e-02	-2.03350628e-02	1.84433186e-01	1.84434429e-01	-4.67854202e-02	-6.11529464e-03	2.39221082e-02	1.78034848e-01
116             	3.71394227e-01	-5.37042568e-02	2.04001981e-01	-6.68129945e-07	-7.78058894e-02	-2.06355771e-02	1.85696445e-01	1.85697782e-01	-4.74877055e-02	-6.21655133e-03	2.41951011e-02	1.79806880e-01
117             	3.73931828e-01	-5.43962540e-02	2.05533105e-01	-7.18947407e-07	-7.83567919e-02	-2.08922734e-02	1.86965195e-01	1.86966633e-01	-4.80904005e-02	-6.30585359e-03	2.44097604e-02	1.81123344e-01
118             	3.76408160e-01	-5.49605427e-02	2.06516028e-01	-7.74091917e-07	-7.86961229e-02	-2.10989856e-02	1.88203306e-01	1.88204854e-01	-4.85792570e-02	-6.38128574e-03	2.45618912e-02	1.81954137e-01
119             	3.78734738e-01	-5.53885412e-02	2.06919956e-01	-8.32642377e-07	-7.88123313e-02	-2.12523889e-02	1.89366536e-01	1.89368202e-01	-4.89466595e-02	-6.44188172e-03	2.46476469e-02	1.82272309e-01
120             	3.80896835e-01	-5.56646463e-02	2.06694499e-01	-8.95783850e-07	-7.86864316e-02	-2.13465013e-02	1.90447522e-01	1.90449313e-01	-4.91788245e-02	-6.48582183e-03	2.46608178e-02	1.82033681e-01
121             	3.82901763e-01	-5.57743450e-02	2.05802683e-01	-9.64815070e-07	-7.83043178e-02	-2.13758558e-02	1.91449917e-01	1.91451846e-01	-4.92630283e-02	-6.51131669e-03	2.45970236e-02	1.81205659e-01
122             	3.84738043e-01	-5.57122624e-02	2.04220311e-01	-1.03978366e-06	-7.76570504e-02	-2.13384677e-02	1.92367982e-01	1.92370061e-01	-4.91945989e-02	-6.51766353e-03	2.44531050e-02	1.79767206e-01
123             	3.86345358e-01	-5.54783303e-02	2.01944226e-01	-1.12027834e-06	-7.67437214e-02	-2.12344566e-02	1.93171559e-01	1.93173799e-01	-4.89736217e-02	-6.50470854e-03	2.42283916e-02	1.77715834e-01
124             	3.87682591e-01	-5.50778140e-02	1.98965995e-01	-1.20637558e-06	-7.55615865e-02	-2.10659786e-02	1.93840089e-01	1.93842502e-01	-4.86048856e-02	-6.47292842e-03	2.39214112e-02	1.75044584e-01
125             	3.88749633e-01	-5.45106316e-02	1.95267368e-01	-1.29866379e-06	-7.41043766e-02	-2.08331556e-02	1.94373518e-01	1.94376115e-01	-4.80884714e-02	-6.42216022e-03	2.35293073e-02	1.71738060e-01
126             	3.89569697e-01	-5.37692030e-02	1.90825955e-01	-1.39462868e-06	-7.23644772e-02	-2.05334241e-02	1.94783454e-01	1.94786243e-01	-4.74180256e-02	-6.35117742e-03	2.30485001e-02	1.67777455e-01
127             	3.90137351e-01	-5.28403975e-02	1.85614755e-01	-1.49357493e-06	-7.03324304e-02	-2.01622278e-02	1.95067182e-01	1.95070169e-01	-4.65824266e-02	-6.25797092e-03	2.24749471e-02	1.63139808e-01
128             	3.90469420e-01	-5.17121558e-02	1.79625476e-01	-1.59410404e-06	-6.80061059e-02	-1.97152759e-02	1.95233116e-01	1.95236304e-01	-4.55713538e-02	-6.14080201e-03	2.18066323e-02	1.57818844e-01
129             	3.90567239e-01	-5.03863477e-02	1.72865760e-01	-1.69457412e-06	-6.53895788e-02	-1.91936073e-02	1.95281925e-01	1.95285314e-01	-4.43867811e-02	-5.99956657e-03	2.10433011e-02	1.51822459e-01
130             	3.90375440e-01	-4.88749724e-02	1.65372573e-01	-1.79311152e-06	-6.24982484e-02	-1.86020875e-02	1.95185927e-01	1.95189513e-01	-4.30395738e-02	-5.83539869e-03	2.01880382e-02	1.45184535e-01
131             	3.89815112e-01	-4.71958939e-02	1.57219909e-01	-1.88839202e-06	-5.93613476e-02	-1.79478124e-02	1.94905668e-01	1.94909444e-01	-4.15457594e-02	-5.65013454e-03	1.92486069e-02	1.37971302e-01
132             	3.88815701e-01	-4.53644792e-02	1.48474559e-01	-1.98118063e-06	-5.60056357e-02	-1.72370234e-02	1.94405869e-01	1.94409831e-01	-3.99192630e-02	-5.44521621e-03	1.82316438e-02	1.30242915e-01
133             	3.87431755e-01	-4.33829693e-02	1.39207210e-01	-2.07041498e-06	-5.24590452e-02	-1.64709684e-02	1.93713807e-01	1.93717948e-01	-3.81624530e-02	-5.22051622e-03	1.71445596e-02	1.22062650e-01
134             	3.85696208e-01	-4.12522953e-02	1.29524468e-01	-2.15436397e-06	-4.87631946e-02	-1.56502572e-02	1.92845949e-01	1.92850258e-01	-3.62764049e-02	-4.97589040e-03	1.59990395e-02	1.13525429e-01
135             	3.83661800e-01	-3.90100461e-02	1.19522363e-01	-2.23364387e-06	-4.49554219e-02	-1.47894215e-02	1.91828666e-01	1.91833133e-01	-3.42944445e-02	-4.71560152e-03	1.48057594e-02	1.04716603e-01
136             	3.81480153e-01	-3.66690560e-02	1.09248043e-01	-2.30804762e-06	-4.10547874e-02	-1.38937090e-02	1.90737769e-01	1.90742385e-01	-3.22282370e-02	-4.44081901e-03	1.35692341e-02	9.56788089e-02
137             	3.79203453e-01	-3.42601297e-02	9.88179030e-02	-2.37778768e-06	-3.71060411e-02	-1.29748885e-02	1.89599349e-01	1.89604104e-01	-3.01049534e-02	-4.15517629e-03	1.23029104e-02	8.65149926e-02
138             	3.76842646e-01	-3.18198638e-02	8.83563760e-02	-2.44371590e-06	-3.31565135e-02	-1.20470927e-02	1.88418879e-01	1.88423767e-01	-2.79570245e-02	-3.86283922e-03	1.10216745e-02	7.73347015e-02
139             	3.74372066e-01	-2.93912615e-02	7.80179429e-02	-2.50466535e-06	-2.92646458e-02	-1.11267492e-02	1.87183529e-01	1.87188538e-01	-2.58223800e-02	-3.56888157e-03	9.74432564e-03	6.82736173e-02
140             	3.71757932e-01	-2.70146965e-02	6.79618170e-02	-2.56037241e-06	-2.54905012e-02	-1.02290578e-02	1.85876406e-01	1.85881526e-01	-2.37364060e-02	-3.27829049e-03	8.49040726e-03	5.94714097e-02
141             	3.68936693e-01	-2.47081939e-02	5.83777532e-02	-2.61105611e-06	-2.19052823e-02	-9.36055097e-03	1.84465736e-01	1.84470958e-01	-2.17146479e-02	-2.99354600e-03	7.28359433e-03	5.10941589e-02
142             	3.65983046e-01	-2.24883147e-02	4.93919866e-02	-2.65657709e-06	-1.85561488e-02	-8.52725384e-03	1.82988867e-01	1.82994180e-01	-1.97714112e-02	-2.71690349e-03	6.13984454e-03	4.32521421e-02
143             	3.63011135e-01	-2.03747110e-02	4.10708496e-02	-2.69430339e-06	-1.54672390e-02	-7.73635476e-03	1.81502873e-01	1.81508262e-01	-1.79237103e-02	-2.45100075e-03	5.06818576e-03	3.60026638e-02